
                                 *****************
                                 * O   R   C   A *
                                 *****************

                                            #,                                       
                                            ###                                      
                                            ####                                     
                                            #####                                    
                                            ######                                   
                                           ########,                                 
                                     ,,################,,,,,                         
                               ,,#################################,,                 
                          ,,##########################################,,             
                       ,#########################################, ''#####,          
                    ,#############################################,,   '####,        
                  ,##################################################,,,,####,       
                ,###########''''           ''''###############################       
              ,#####''   ,,,,##########,,,,          '''####'''          '####       
            ,##' ,,,,###########################,,,                        '##       
           ' ,,###''''                  '''############,,,                           
         ,,##''                                '''############,,,,        ,,,,,,###''
      ,#''                                            '''#######################'''  
     '                                                          ''''####''''         
             ,#######,   #######,   ,#######,      ##                                
            ,#'     '#,  ##    ##  ,#'     '#,    #''#        ######   ,####,        
            ##       ##  ##   ,#'  ##            #'  '#       #        #'  '#        
            ##       ##  #######   ##           ,######,      #####,   #    #        
            '#,     ,#'  ##    ##  '#,     ,#' ,#      #,         ##   #,  ,#        
             '#######'   ##     ##  '#######'  #'      '#     #####' # '####'        



                  #######################################################
                  #                        -***-                        #
                  #          Department of theory and spectroscopy      #
                  #    Directorship and core code : Frank Neese         #
                  #        Max Planck Institute fuer Kohlenforschung    #
                  #                Kaiser Wilhelm Platz 1               #
                  #                 D-45470 Muelheim/Ruhr               #
                  #                      Germany                        #
                  #                                                     #
                  #                  All rights reserved                #
                  #                        -***-                        #
                  #######################################################


                         Program Version 5.0.4 -  RELEASE  -


 With contributions from (in alphabetic order):
   Daniel Aravena         : Magnetic Suceptibility
   Michael Atanasov       : Ab Initio Ligand Field Theory (pilot matlab implementation)
   Alexander A. Auer      : GIAO ZORA, VPT2 properties, NMR spectrum
   Ute Becker             : Parallelization
   Giovanni Bistoni       : ED, misc. LED, open-shell LED, HFLD
   Martin Brehm           : Molecular dynamics
   Dmytro Bykov           : SCF Hessian
   Vijay G. Chilkuri      : MRCI spin determinant printing, contributions to CSF-ICE
   Dipayan Datta          : RHF DLPNO-CCSD density
   Achintya Kumar Dutta   : EOM-CC, STEOM-CC
   Dmitry Ganyushin       : Spin-Orbit,Spin-Spin,Magnetic field MRCI
   Miquel Garcia          : C-PCM and meta-GGA Hessian, CC/C-PCM, Gaussian charge scheme
   Yang Guo               : DLPNO-NEVPT2, F12-NEVPT2, CIM, IAO-localization
   Andreas Hansen         : Spin unrestricted coupled pair/coupled cluster methods
   Benjamin Helmich-Paris : MC-RPA, TRAH-SCF, COSX integrals
   Lee Huntington         : MR-EOM, pCC
   Robert Izsak           : Overlap fitted RIJCOSX, COSX-SCS-MP3, EOM
   Marcus Kettner         : VPT2
   Christian Kollmar      : KDIIS, OOCD, Brueckner-CCSD(T), CCSD density, CASPT2, CASPT2-K
   Simone Kossmann        : Meta GGA functionals, TD-DFT gradient, OOMP2, MP2 Hessian
   Martin Krupicka        : Initial AUTO-CI
   Lucas Lang             : DCDCAS
   Marvin Lechner         : AUTO-CI (C++ implementation), FIC-MRCC
   Dagmar Lenk            : GEPOL surface, SMD
   Dimitrios Liakos       : Extrapolation schemes; Compound Job, initial MDCI parallelization
   Dimitrios Manganas     : Further ROCIS development; embedding schemes
   Dimitrios Pantazis     : SARC Basis sets
   Anastasios Papadopoulos: AUTO-CI, single reference methods and gradients
   Taras Petrenko         : DFT Hessian,TD-DFT gradient, ASA, ECA, R-Raman, ABS, FL, XAS/XES, NRVS
   Peter Pinski           : DLPNO-MP2, DLPNO-MP2 Gradient
   Christoph Reimann      : Effective Core Potentials
   Marius Retegan         : Local ZFS, SOC
   Christoph Riplinger    : Optimizer, TS searches, QM/MM, DLPNO-CCSD(T), (RO)-DLPNO pert. Triples
   Tobias Risthaus        : Range-separated hybrids, TD-DFT gradient, RPA, STAB
   Michael Roemelt        : Original ROCIS implementation
   Masaaki Saitow         : Open-shell DLPNO-CCSD energy and density
   Barbara Sandhoefer     : DKH picture change effects
   Avijit Sen             : IP-ROCIS
   Kantharuban Sivalingam : CASSCF convergence, NEVPT2, FIC-MRCI
   Bernardo de Souza      : ESD, SOC TD-DFT
   Georgi Stoychev        : AutoAux, RI-MP2 NMR, DLPNO-MP2 response
   Willem Van den Heuvel  : Paramagnetic NMR
   Boris Wezisla          : Elementary symmetry handling
   Frank Wennmohs         : Technical directorship


 We gratefully acknowledge several colleagues who have allowed us to
 interface, adapt or use parts of their codes:
   Stefan Grimme, W. Hujo, H. Kruse, P. Pracht,  : VdW corrections, initial TS optimization,
                  C. Bannwarth, S. Ehlert          DFT functionals, gCP, sTDA/sTD-DF
   Ed Valeev, F. Pavosevic, A. Kumar             : LibInt (2-el integral package), F12 methods
   Garnet Chan, S. Sharma, J. Yang, R. Olivares  : DMRG
   Ulf Ekstrom                                   : XCFun DFT Library
   Mihaly Kallay                                 : mrcc  (arbitrary order and MRCC methods)
   Jiri Pittner, Ondrej Demel                    : Mk-CCSD
   Frank Weinhold                                : gennbo (NPA and NBO analysis)
   Christopher J. Cramer and Donald G. Truhlar   : smd solvation model
   Lars Goerigk                                  : TD-DFT with DH, B97 family of functionals
   V. Asgeirsson, H. Jonsson                     : NEB implementation
   FAccTs GmbH                                   : IRC, NEB, NEB-TS, DLPNO-Multilevel, CI-OPT
                                                   MM, QMMM, 2- and 3-layer-ONIOM, Crystal-QMMM,
                                                   LR-CPCM, SF, NACMEs, symmetry and pop. for TD-DFT,
                                                   nearIR, NL-DFT gradient (VV10), updates on ESD,
                                                   ML-optimized integration grids
   S Lehtola, MJT Oliveira, MAL Marques          : LibXC Library
   Liviu Ungur et al                             : ANISO software


 Your calculation uses the libint2 library for the computation of 2-el integrals
 For citations please refer to: http://libint.valeyev.net

 Your ORCA version has been built with support for libXC version: 5.1.0
 For citations please refer to: https://tddft.org/programs/libxc/

 This ORCA versions uses:
   CBLAS   interface :  Fast vector & matrix operations
   LAPACKE interface :  Fast linear algebra routines
   SCALAPACK package :  Parallel linear algebra routines
   Shared memory     :  Shared parallel matrices
   BLAS/LAPACK       :  OpenBLAS 0.3.15  USE64BITINT DYNAMIC_ARCH NO_AFFINITY Zen SINGLE_THREADED
        Core in use  :  Zen
   Copyright (c) 2011-2014, The OpenBLAS Project


================================================================================

----- Orbital basis set information -----
Your calculation utilizes the basis: def2-SVP
   F. Weigend and R. Ahlrichs, Phys. Chem. Chem. Phys. 7, 3297 (2005).

----- AuxJ basis set information -----
Your calculation utilizes the auxiliary basis: def2/J
   F. Weigend, Phys. Chem. Chem. Phys. 8, 1057 (2006).

================================================================================
                                        WARNINGS
                       Please study these warnings very carefully!
================================================================================

WARNING: Old DensityContainer found on disk!
         Will remove this file - 
         If you want to keep old densities, please start your calculation with a different basename. 

INFO   : Checking CIS options ...

WARNING: CIS/ROCIS methods need fully converged wavefunctions
  ===> : Setting SCFConvForced true
         You can overwrite this default with %scf ConvForced false 


INFO   : the flag for use of the SHARK integral package has been found!

================================================================================
                                       INPUT FILE
================================================================================
NAME = ../../mol/ORCA_in/CO.2.com
|  1> ! BHANDHLYP def2-SVP TightSCF
|  2> 
|  3> %CPCM
|  4> end
|  5> 
|  6> %tddft
|  7> NRoots 5
|  8> IRoot 1
|  9> end
| 10> 
| 11> #  1 
| 12> * xyz 0 1
| 13>  C 0.000000    0.000000    0.000000
| 14>  O 0.000000    0.000000    1.200000
| 15>  O 0.000000    0.000000   -1.159076
| 16> *
| 17> 
| 18>                          ****END OF INPUT****
================================================================================

                       ****************************
                       * Single Point Calculation *
                       ****************************

---------------------------------
CARTESIAN COORDINATES (ANGSTROEM)
---------------------------------
  C      0.000000    0.000000    0.000000
  O      0.000000    0.000000    1.200000
  O      0.000000    0.000000   -1.159076

----------------------------
CARTESIAN COORDINATES (A.U.)
----------------------------
  NO LB      ZA    FRAG     MASS         X           Y           Z
   0 C     6.0000    0    12.011    0.000000    0.000000    0.000000
   1 O     8.0000    0    15.999    0.000000    0.000000    2.267671
   2 O     8.0000    0    15.999    0.000000    0.000000   -2.190336

--------------------------------
INTERNAL COORDINATES (ANGSTROEM)
--------------------------------
 C      0   0   0     0.000000000000     0.00000000     0.00000000
 O      1   0   0     1.200000000000     0.00000000     0.00000000
 O      1   2   0     1.159076000000   180.00000000     0.00000000

---------------------------
INTERNAL COORDINATES (A.U.)
---------------------------
 C      0   0   0     0.000000000000     0.00000000     0.00000000
 O      1   0   0     2.267671360706     0.00000000     0.00000000
 O      1   2   0     2.190336208401   180.00000000     0.00000000

---------------------
BASIS SET INFORMATION
---------------------
There are 2 groups of distinct atoms

 Group   1 Type C   : 7s4p1d contracted to 3s2p1d pattern {511/31/1}
 Group   2 Type O   : 7s4p1d contracted to 3s2p1d pattern {511/31/1}

Atom   0C    basis set group =>   1
Atom   1O    basis set group =>   2
Atom   2O    basis set group =>   2
---------------------------------
AUXILIARY/J BASIS SET INFORMATION
---------------------------------
There are 2 groups of distinct atoms

 Group   1 Type C   : 12s5p4d2f1g contracted to 6s4p3d1f1g pattern {711111/2111/211/2/1}
 Group   2 Type O   : 12s5p4d2f1g contracted to 6s4p3d1f1g pattern {711111/2111/211/2/1}

Atom   0C    basis set group =>   1
Atom   1O    basis set group =>   2
Atom   2O    basis set group =>   2

Checking for AutoStart:
The File: ../../mol/ORCA_in/CO.2.gbw exists
Trying to determine its content:
     ... Fine, the file contains calculation information
     ... Fine, the calculation information was read
     ... Fine, the file contains a basis set
     ... Fine, the basis set was read
     ... Fine, the file contains a geometry
     ... Fine, the geometry was read
     ... Fine, the file contains a set of orbitals
     ... Fine, the orbitals can be read
     => possible old guess file was deleted
     => GBW file was renamed to GES file
     => GES file is set as startup file
     => Guess is set to MORead
     ... now leaving AutoStart

------------------------------------------------------------------------------
                           ORCA GTO INTEGRAL CALCULATION
                           -- RI-GTO INTEGRALS CHOSEN --
------------------------------------------------------------------------------
------------------------------------------------------------------------------
                   ___                                                        
                  /   \      - P O W E R E D   B Y -                         
                 /     \                                                     
                 |  |  |   _    _      __       _____    __    __             
                 |  |  |  | |  | |    /  \     |  _  \  |  |  /  |          
                  \  \/   | |  | |   /    \    | | | |  |  | /  /          
                 / \  \   | |__| |  /  /\  \   | |_| |  |  |/  /          
                |  |  |   |  __  | /  /__\  \  |    /   |      \           
                |  |  |   | |  | | |   __   |  |    \   |  |\   \          
                \     /   | |  | | |  |  |  |  | |\  \  |  | \   \       
                 \___/    |_|  |_| |__|  |__|  |_| \__\ |__|  \__/        
                                                                              
                      - O R C A' S   B I G   F R I E N D -                    
                                      &                                       
                       - I N T E G R A L  F E E D E R -                       
                                                                              
 v1 FN, 2020, v2 2021                                                         
------------------------------------------------------------------------------


Reading SHARK input file ../../mol/ORCA_in/CO.2.SHARKINP.tmp ... ok
----------------------
SHARK INTEGRAL PACKAGE
----------------------

Number of atoms                             ...      3
Number of basis functions                   ...     42
Number of shells                            ...     18
Maximum angular momentum                    ...      2
Integral batch strategy                     ... SHARK/LIBINT Hybrid
RI-J (if used) integral strategy            ... SPLIT-RIJ (Revised 2003 algorithm where possible)
Printlevel                                  ...      1
Contraction scheme used                     ... SEGMENTED contraction
Coulomb Range Separation                    ... NOT USED
Exchange Range Separation                   ... NOT USED
Finite Nucleus Model                        ... NOT USED
Auxiliary Coulomb fitting basis             ... AVAILABLE
   # of basis functions in Aux-J            ...    147
   # of shells in Aux-J                     ...     45
   Maximum angular momentum in Aux-J        ...      4
Auxiliary J/K fitting basis                 ... NOT available
Auxiliary Correlation fitting basis         ... NOT available
Auxiliary 'external' fitting basis          ... NOT available
Integral threshold                          ...     2.500000e-11
Primitive cut-off                           ...     2.500000e-12
Primitive pair pre-selection threshold      ...     2.500000e-12

Calculating pre-screening integrals         ... done (  0.0 sec) Dimension = 18
Organizing shell pair data                  ... done (  0.0 sec)
Shell pair information
Total number of shell pairs                 ...       171
Shell pairs after pre-screening             ...       170
Total number of primitive shell pairs       ...       705
Primitive shell pairs kept                  ...       603
          la=0 lb=0:     44 shell pairs
          la=1 lb=0:     54 shell pairs
          la=1 lb=1:     21 shell pairs
          la=2 lb=0:     27 shell pairs
          la=2 lb=1:     18 shell pairs
          la=2 lb=2:      6 shell pairs

Calculating one electron integrals          ... done (  0.0 sec)
Calculating RI/J V-Matrix + Cholesky decomp.... done (  0.0 sec)
Calculating Nuclear repulsion               ... done (  0.0 sec) ENN=     57.437721423469 Eh

SHARK setup successfully completed in   0.1 seconds

Maximum memory used throughout the entire GTOINT-calculation: 8.9 MB
-------------------------------------------------------------------------------
                                 ORCA SCF
-------------------------------------------------------------------------------

------------
SCF SETTINGS
------------
Hamiltonian:
 Density Functional     Method          .... DFT(GTOs)
 Exchange Functional    Exchange        .... B88
   X-Alpha parameter    XAlpha          ....  0.666667
   Becke's b parameter  XBeta           ....  0.004200
 Correlation Functional Correlation     .... LYP
 Gradients option       PostSCFGGA      .... off
 Hybrid DFT is turned on
   Fraction HF Exchange ScalHFX         ....  0.500000
   Scaling of DF-GGA-X  ScalDFX         ....  0.500000
   Scaling of DF-GGA-C  ScalDFC         ....  1.000000
   Scaling of DF-LDA-C  ScalLDAC        ....  1.000000
   Perturbative correction              ....  0.000000
   Density functional embedding theory  .... OFF
 RI-approximation to the Coulomb term is turned on
   Number of AuxJ basis functions       .... 147
   RIJ-COSX (HFX calculated with COS-X)).... on


General Settings:
 Integral files         IntName         .... ../../mol/ORCA_in/CO.2
 Hartree-Fock type      HFTyp           .... RHF
 Total Charge           Charge          ....    0
 Multiplicity           Mult            ....    1
 Number of Electrons    NEL             ....   22
 Basis Dimension        Dim             ....   42
 Nuclear Repulsion      ENuc            ....     57.4377214235 Eh

Convergence Acceleration:
 DIIS                   CNVDIIS         .... on
   Start iteration      DIISMaxIt       ....    12
   Startup error        DIISStart       ....  0.200000
   # of expansion vecs  DIISMaxEq       ....     5
   Bias factor          DIISBfac        ....   1.050
   Max. coefficient     DIISMaxC        ....  10.000
 Trust-Rad. Augm. Hess. CNVTRAH         .... auto
   Auto Start mean grad. ratio tolernc. ....  1.125000
   Auto Start start iteration           ....     1
   Auto Start num. interpolation iter.  ....    10
   Max. Number of Micro iterations      ....    16
   Max. Number of Macro iterations      .... Maxiter - #DIIS iter
   Number of Davidson start vectors     ....     2
   Converg. threshold I  (grad. norm)   ....   1.000e-05
   Converg. threshold II (energy diff.) ....   1.000e-08
   Grad. Scal. Fac. for Micro threshold ....   0.100
   Minimum threshold for Micro iter.    ....   0.010
   NR start threshold (gradient norm)   ....   0.001
   Initial trust radius                 ....   0.400
   Minimum AH scaling param. (alpha)    ....   1.000
   Maximum AH scaling param. (alpha)    .... 1000.000
   Orbital update algorithm             .... Taylor
   White noise on init. David. guess    .... on
   Maximum white noise                  ....   0.010
   Quad. conv. algorithm                .... NR
 SOSCF                  CNVSOSCF        .... on
   Start iteration      SOSCFMaxIt      ....   150
   Startup grad/error   SOSCFStart      ....  0.003300
 Level Shifting         CNVShift        .... on
   Level shift para.    LevelShift      ....    0.2500
   Turn off err/grad.   ShiftErr        ....    0.0010
 Zerner damping         CNVZerner       .... off
 Static damping         CNVDamp         .... on
   Fraction old density DampFac         ....    0.7000
   Max. Damping (<1)    DampMax         ....    0.9800
   Min. Damping (>=0)   DampMin         ....    0.0000
   Turn off err/grad.   DampErr         ....    0.1000
 Fernandez-Rico         CNVRico         .... off

SCF Procedure:
 Maximum # iterations   MaxIter         ....   125
 SCF integral mode      SCFMode         .... Direct
   Integral package                     .... SHARK and LIBINT hybrid scheme
 Reset frequency        DirectResetFreq ....    20
 Integral Threshold     Thresh          ....  2.500e-11 Eh
 Primitive CutOff       TCut            ....  2.500e-12 Eh

Convergence Tolerance:
 Convergence Check Mode ConvCheckMode   .... Total+1el-Energy
 Convergence forced     ConvForced      .... 1
 Energy Change          TolE            ....  1.000e-08 Eh
 1-El. energy change                    ....  1.000e-05 Eh
 Orbital Gradient       TolG            ....  1.000e-05
 Orbital Rotation angle TolX            ....  1.000e-05
 DIIS Error             TolErr          ....  5.000e-07


Diagonalization of the overlap matrix:
Smallest eigenvalue                        ... 9.222e-03
Time for diagonalization                   ...    0.000 sec
Threshold for overlap eigenvalues          ... 1.000e-08
Number of eigenvalues below threshold      ... 0
Time for construction of square roots      ...    0.000 sec
Total time needed                          ...    0.000 sec

---------------------
INITIAL GUESS: MOREAD
---------------------
Guess MOs are being read from file: ../../mol/ORCA_in/CO.2.ges
Input Geometry matches current geometry (good)
Input basis set matches current basis set (good)
MOs were renormalized
MOs were reorthogonalized (Cholesky)
                      ------------------
                      INITIAL GUESS DONE (   0.0 sec)
                      ------------------
-------------------
DFT GRID GENERATION
-------------------

General Integration Accuracy     IntAcc      ... 4.388
Radial Grid Type                 RadialGrid  ... OptM3 with GC (2021)
Angular Grid (max. ang.)         AngularGrid ... 4 (Lebedev-302)
Angular grid pruning method      GridPruning ... 4 (adaptive)
Weight generation scheme         WeightScheme... Becke
Basis function cutoff            BFCut       ... 1.0000e-11
Integration weight cutoff        WCut        ... 1.0000e-14
Angular grids for H and He will be reduced by one unit
Partially contracted basis set               ... off
Rotationally invariant grid construction     ... off

Total number of grid points                  ...    18361
Total number of batches                      ...      288
Average number of points per batch           ...       63
Average number of grid points per atom       ...     6120
Time for grid setup =    0.093 sec

--------------------
COSX GRID GENERATION
--------------------

GRIDX 1
-------
General Integration Accuracy     IntAcc      ... 3.816
Radial Grid Type                 RadialGrid  ... OptM3 with GC (2021)
Angular Grid (max. ang.)         AngularGrid ... 1 (Lebedev-50)
Angular grid pruning method      GridPruning ... 4 (adaptive)
Weight generation scheme         WeightScheme... Becke
Basis function cutoff            BFCut       ... 1.0000e-11
Integration weight cutoff        WCut        ... 1.0000e-14
Angular grids for H and He will be reduced by one unit
Partially contracted basis set               ... on
Rotationally invariant grid construction     ... off

Total number of grid points                  ...     2292
Total number of batches                      ...       37
Average number of points per batch           ...       61
Average number of grid points per atom       ...      764
UseSFitting                                  ... on

GRIDX 2
-------
General Integration Accuracy     IntAcc      ... 4.020
Radial Grid Type                 RadialGrid  ... OptM3 with GC (2021)
Angular Grid (max. ang.)         AngularGrid ... 2 (Lebedev-110)
Angular grid pruning method      GridPruning ... 4 (adaptive)
Weight generation scheme         WeightScheme... Becke
Basis function cutoff            BFCut       ... 1.0000e-11
Integration weight cutoff        WCut        ... 1.0000e-14
Angular grids for H and He will be reduced by one unit
Partially contracted basis set               ... on
Rotationally invariant grid construction     ... off

Total number of grid points                  ...     5632
Total number of batches                      ...       89
Average number of points per batch           ...       63
Average number of grid points per atom       ...     1877
UseSFitting                                  ... on

GRIDX 3
-------
General Integration Accuracy     IntAcc      ... 4.338
Radial Grid Type                 RadialGrid  ... OptM3 with GC (2021)
Angular Grid (max. ang.)         AngularGrid ... 3 (Lebedev-194)
Angular grid pruning method      GridPruning ... 4 (adaptive)
Weight generation scheme         WeightScheme... Becke
Basis function cutoff            BFCut       ... 1.0000e-11
Integration weight cutoff        WCut        ... 1.0000e-14
Angular grids for H and He will be reduced by one unit
Partially contracted basis set               ... on
Rotationally invariant grid construction     ... off

Total number of grid points                  ...    12569
Total number of batches                      ...      198
Average number of points per batch           ...       63
Average number of grid points per atom       ...     4190
UseSFitting                                  ... on

Time for X-Grid setup             =    0.093 sec


--------------------
CPCM SOLVATION MODEL
--------------------
CPCM parameters:
  Epsilon                                         ...     INFINITY
  Refrac                                          ...       1.0000
  Rsolv                                           ...       1.3000
  Surface type                                    ... GAUSSIAN VDW
  Epsilon function type                           ...         CPCM
Radii:
 Radius for C  used is    3.8550 Bohr (=   2.0400 Ang.)
 Radius for O  used is    3.4469 Bohr (=   1.8240 Ang.)
Calculating surface                               ...        done! (  0.0s)
GEPOL surface points                              ...          254
GEPOL Volume                                      ...     358.5514
GEPOL Surface-area                                ...     254.6357
Calculating surface distance matrix               ...        done! (  0.0s)
Performing Cholesky decomposition & store         ...        done! (  0.0s)
Overall time for CPCM initialization              ...                 0.0s
--------------
SCF ITERATIONS
--------------
ITER       Energy         Delta-E        Max-DP      RMS-DP      [F,P]     Damp
               ***  Starting incremental Fock matrix formation  ***
                      *** Initiating the SOSCF procedure ***
                      *** Re-Reading the Fockian *** 
                      *** Removing any level shift *** 
ITER      Energy       Delta-E        Grad      Rot      Max-DP    RMS-DP
  0   -188.34174811 -188.3417481107  0.000000  0.000000  0.000000  0.000000
               *** Restarting incremental Fock matrix formation ***
                 **** Energy Check signals convergence ****
              ***Rediagonalizing the Fockian in SOSCF/NRSCF***

               *****************************************************
               *                     SUCCESS                       *
               *           SCF CONVERGED AFTER   1 CYCLES          *
               *****************************************************

Old exchange energy                            =    -10.772650344 Eh
New exchange energy                            =    -10.772614286 Eh
Exchange energy change after final integration =      0.000036058 Eh
Total energy after final integration           =   -188.341712052 Eh
Final COS-X integration done in                =     0.216 sec

----------------
TOTAL SCF ENERGY
----------------

Total Energy       :         -188.34171205 Eh           -5125.03854 eV

Components:
Nuclear Repulsion  :           57.43772142 Eh            1562.95986 eV
Electronic Energy  :         -245.77943348 Eh           -6687.99840 eV
One Electron Energy:         -370.65479445 Eh          -10086.02972 eV
Two Electron Energy:          124.87536098 Eh            3398.03132 eV
Max COSX asymmetry :            0.00000183 Eh               0.00005 eV
CPCM Dielectric    :           -0.00419965 Eh              -0.11428 eV

Virial components:
Potential Energy   :         -375.20039239 Eh          -10209.72173 eV
Kinetic Energy     :          186.85868034 Eh            5084.68319 eV
Virial Ratio       :            2.00793665


DFT components:
N(Alpha)           :       10.999998460002 electrons
N(Beta)            :       10.999998460002 electrons
N(Total)           :       21.999996920005 electrons
E(X)               :      -10.850473526084 Eh       
E(C)               :       -0.789145984375 Eh       
E(XC)              :      -11.639619510459 Eh       
DFET-embed. en.    :        0.000000000000 Eh       
CPCM Solvation Model Properties:
Surface-charge          :           -0.00203653
Charge-correction       :            0.00001286 Eh               0.00035 eV
Free-energy (cav+disp)  :  This term is not implemented in the current solvation scheme

---------------
SCF CONVERGENCE
---------------

  Last Energy change         ...   -3.4106e-13  Tolerance :   1.0000e-08
  Last MAX-Density change    ...    1.7764e-15  Tolerance :   1.0000e-07
  Last RMS-Density change    ...    6.7531e-17  Tolerance :   5.0000e-09
  Last Orbital Gradient      ...    2.9941e-08  Tolerance :   1.0000e-05
  Last Orbital Rotation      ...    5.7343e-08  Tolerance :   1.0000e-05

             **** THE GBW FILE WAS UPDATED (../../mol/ORCA_in/CO.2.gbw) ****
             **** DENSITY ../../mol/ORCA_in/CO.2.scfp WAS UPDATED ****
             **** ENERGY FILE WAS UPDATED (../../mol/ORCA_in/CO.2.en.tmp) ****
             **** THE GBW FILE WAS UPDATED (../../mol/ORCA_in/CO.2.gbw) ****
             **** DENSITY ../../mol/ORCA_in/CO.2.scfp WAS UPDATED ****
----------------
ORBITAL ENERGIES
----------------

  NO   OCC          E(Eh)            E(eV) 
   0   2.0000     -19.776472      -538.1452 
   1   2.0000     -19.766039      -537.8613 
   2   2.0000     -10.811663      -294.2003 
   3   2.0000      -1.289442       -35.0875 
   4   2.0000      -1.234421       -33.5903 
   5   2.0000      -0.653111       -17.7721 
   6   2.0000      -0.606959       -16.5162 
   7   2.0000      -0.591759       -16.1026 
   8   2.0000      -0.591759       -16.1026 
   9   2.0000      -0.439837       -11.9686 
  10   2.0000      -0.439837       -11.9686 
  11   0.0000       0.082300         2.2395 
  12   0.0000       0.082300         2.2395 
  13   0.0000       0.112061         3.0493 
  14   0.0000       0.388944        10.5837 
  15   0.0000       0.485901        13.2220 
  16   0.0000       0.485901        13.2220 
  17   0.0000       0.523685        14.2502 
  18   0.0000       0.823829        22.4175 
  19   0.0000       0.887633        24.1537 
  20   0.0000       0.996365        27.1125 
  21   0.0000       0.996365        27.1125 
  22   0.0000       1.169764        31.8309 
  23   0.0000       1.184808        32.2403 
  24   0.0000       1.184808        32.2403 
  25   0.0000       1.316995        35.8373 
  26   0.0000       1.621720        44.1292 
  27   0.0000       1.621735        44.1297 
  28   0.0000       1.659092        45.1462 
  29   0.0000       1.659092        45.1462 
  30   0.0000       1.664232        45.2860 
  31   0.0000       2.675073        72.7924 
  32   0.0000       2.675225        72.7966 
  33   0.0000       2.787290        75.8460 
  34   0.0000       2.787435        75.8500 
  35   0.0000       2.878633        78.3316 
  36   0.0000       2.878633        78.3316 
  37   0.0000       2.900239        78.9195 
  38   0.0000       3.638246        99.0017 
  39   0.0000       3.638246        99.0017 
  40   0.0000       3.641694        99.0955 
  41   0.0000       3.976300       108.2006 

                    ********************************
                    * MULLIKEN POPULATION ANALYSIS *
                    ********************************

-----------------------
MULLIKEN ATOMIC CHARGES
-----------------------
   0 C :    0.445232
   1 O :   -0.256071
   2 O :   -0.189161
Sum of atomic charges:    0.0000000

--------------------------------
MULLIKEN REDUCED ORBITAL CHARGES
--------------------------------
  0 C s       :     2.959531  s :     2.959531
      pz      :     0.940137  p :     2.442469
      px      :     0.751166
      py      :     0.751166
      dz2     :     0.033239  d :     0.152768
      dxz     :     0.059765
      dyz     :     0.059765
      dx2y2   :     0.000000
      dxy     :     0.000000
  1 O s       :     3.760386  s :     3.760386
      pz      :     1.264852  p :     4.473927
      px      :     1.604537
      py      :     1.604537
      dz2     :     0.009380  d :     0.021758
      dxz     :     0.006189
      dyz     :     0.006189
      dx2y2   :     0.000000
      dxy     :     0.000000
  2 O s       :     3.730550  s :     3.730550
      pz      :     1.291721  p :     4.434081
      px      :     1.571180
      py      :     1.571180
      dz2     :     0.010204  d :     0.024530
      dxz     :     0.007163
      dyz     :     0.007163
      dx2y2   :     0.000000
      dxy     :     0.000000


                     *******************************
                     * LOEWDIN POPULATION ANALYSIS *
                     *******************************

----------------------
LOEWDIN ATOMIC CHARGES
----------------------
   0 C :    0.250074
   1 O :   -0.156801
   2 O :   -0.093272

-------------------------------
LOEWDIN REDUCED ORBITAL CHARGES
-------------------------------
  0 C s       :     2.817366  s :     2.817366
      pz      :     1.093210  p :     2.621523
      px      :     0.764156
      py      :     0.764156
      dz2     :     0.083977  d :     0.311037
      dxz     :     0.113530
      dyz     :     0.113530
      dx2y2   :     0.000000
      dxy     :     0.000000
  1 O s       :     3.558534  s :     3.558534
      pz      :     1.419653  p :     4.563888
      px      :     1.572118
      py      :     1.572118
      dz2     :     0.020470  d :     0.034379
      dxz     :     0.006955
      dyz     :     0.006955
      dx2y2   :     0.000000
      dxy     :     0.000000
  2 O s       :     3.528803  s :     3.528803
      pz      :     1.456225  p :     4.526274
      px      :     1.535025
      py      :     1.535025
      dz2     :     0.021762  d :     0.038195
      dxz     :     0.008217
      dyz     :     0.008217
      dx2y2   :     0.000000
      dxy     :     0.000000


                      *****************************
                      * MAYER POPULATION ANALYSIS *
                      *****************************

  NA   - Mulliken gross atomic population
  ZA   - Total nuclear charge
  QA   - Mulliken gross atomic charge
  VA   - Mayer's total valence
  BVA  - Mayer's bonded valence
  FA   - Mayer's free valence

  ATOM       NA         ZA         QA         VA         BVA        FA
  0 C      5.5548     6.0000     0.4452     4.2409     4.2409     0.0000
  1 O      8.2561     8.0000    -0.2561     2.2975     2.2975    -0.0000
  2 O      8.1892     8.0000    -0.1892     2.3749     2.3749     0.0000

  Mayer bond orders larger than 0.100000
B(  0-C ,  1-O ) :   2.0817 B(  0-C ,  2-O ) :   2.1591 B(  1-O ,  2-O ) :   0.2158 


-------
TIMINGS
-------

Total SCF time: 0 days 0 hours 0 min 0 sec 

Total time                  ....       0.955 sec
Sum of individual times     ....       0.913 sec  ( 95.6%)

Fock matrix formation       ....       0.725 sec  ( 75.9%)
  Split-RI-J                ....       0.111 sec  ( 15.4% of F)
  Chain of spheres X        ....       0.426 sec  ( 58.8% of F)
  XC integration            ....       0.100 sec  ( 13.8% of F)
    Basis function eval.    ....       0.042 sec  ( 42.3% of XC)
    Density eval.           ....       0.017 sec  ( 17.2% of XC)
    XC-Functional eval.     ....       0.023 sec  ( 23.1% of XC)
    XC-Potential eval.      ....       0.011 sec  ( 10.7% of XC)
Diagonalization             ....       0.000 sec  (  0.0%)
Density matrix formation    ....       0.000 sec  (  0.0%)
Population analysis         ....       0.001 sec  (  0.1%)
Initial guess               ....       0.001 sec  (  0.1%)
Orbital Transformation      ....       0.000 sec  (  0.0%)
Orbital Orthonormalization  ....       0.000 sec  (  0.0%)
DIIS solution               ....       0.000 sec  (  0.0%)
SOSCF solution              ....       0.000 sec  (  0.0%)
Grid generation             ....       0.186 sec  ( 19.5%)

Maximum memory used throughout the entire SCF-calculation: 45.5 MB
------------------------------------------------------------------------------
                        ORCA TD-DFT/TDA CALCULATION
------------------------------------------------------------------------------

Input orbitals are from        ... ../../mol/ORCA_in/CO.2.gbw
CI-vector output               ... ../../mol/ORCA_in/CO.2.cis
Tamm-Dancoff approximation     ... operative
CIS-Integral strategy          ... AO-integrals
Integral handling              ... AO integral Direct
Max. core memory used          ... 512 MB
Reference state                ... RHF
Generation of triplets         ... off
Follow IRoot                   ... off
Number of operators            ... 1
Orbital ranges used for CIS calculation:
 Operator 0:  Orbitals   3... 10  to  11... 41
XAS localization array:
 Operator 0:  Orbitals  -1... -1

-------------------
XC-INTEGRATION GRID
-------------------

General Integration Accuracy     IntAcc      ... 3.467
Radial Grid Type                 RadialGrid  ... OptM3 with GC (2021)
Angular Grid (max. ang.)         AngularGrid ... 1 (Lebedev-50)
Angular grid pruning method      GridPruning ... 4 (adaptive)
Weight generation scheme         WeightScheme... Becke
Basis function cutoff            BFCut       ... 1.0000e-11
Integration weight cutoff        WCut        ... 1.0000e-14
Angular grids for H and He will be reduced by one unit
Partially contracted basis set               ... off
Rotationally invariant grid construction     ... off

Total number of grid points                  ...     2877
Total number of batches                      ...       46
Average number of points per batch           ...       62
Average number of grid points per atom       ...      959

---------------------
COSX-INTEGRATION GRID
---------------------

General Integration Accuracy     IntAcc      ... 3.067
Radial Grid Type                 RadialGrid  ... OptM3 with GC (2021)
Angular Grid (max. ang.)         AngularGrid ... 1 (Lebedev-50)
Angular grid pruning method      GridPruning ... 4 (adaptive)
Weight generation scheme         WeightScheme... Becke
Basis function cutoff            BFCut       ... 1.0000e-11
Integration weight cutoff        WCut        ... 1.0000e-14
Angular grids for H and He will be reduced by one unit
Partially contracted basis set               ... on
Rotationally invariant grid construction     ... off

Total number of grid points                  ...     1261
Total number of batches                      ...       20
Average number of points per batch           ...       63
Average number of grid points per atom       ...      420

---------------
TD-DFT XC SETUP
---------------

DFT calculation                         ... on
Name of the grid file                   ... ../../mol/ORCA_in/CO.2.grid_cis.tmp
Exchange functional (TD-DFT)            ... B88
   X-Alpha parameter    XAlpha (TD-DFT) ...  0.666667
   Becke's b parameter  XBeta (TD-DFT)  ...  0.004200
Correlation functional (TD-DFT)         ... LYP
Hybrid DFT                              ... on
   Exchange mixing (TD-DFT)             ...  0.500
   GGA exch. scaling (TD-DFT)           ...  0.500
   GGA corr. scaling (TD-DFT)           ...  1.000

Building densities             ... done
Calculating rho(r) on the grid ... done
Building xc-kernel on the grid ... done
                    *** TD-DFT CALCULATION INITIALIZED ***

---------------------------------
    LR-CPCM (non-equilibrium)
---------------------------------

Setting up LR-CPCM             ... done

------------------------
DAVIDSON-DIAGONALIZATION
------------------------

Dimension of the eigenvalue problem            ...    248
Number of roots to be determined               ...      5
Maximum size of the expansion space            ...     50
Maximum number of iterations                   ...    100
Convergence tolerance for the residual         ...    2.500e-07
Convergence tolerance for the energies         ...    2.500e-07
Orthogonality tolerance                        ...    1.000e-14
Level Shift                                    ...    0.000e+00
Constructing the preconditioner                ... o.k.
Building the initial guess                     ... o.k.
Number of trial vectors determined             ...     50


                       ****Iteration    0****

   Memory handling for direct AO based CIS:
   Memory per vector needed      ...     1 MB
   Memory needed                 ...     1 MB
   Memory available              ...   512 MB
   Number of vectors per batch   ...   512
   Number of batches             ...     1
   Time for densities:            0.000
   Time for RI-J (Direct):        0.015
   Time for K (COSX):             0.061
   Time for XC-Integration:       0.052
   Time for LR-CPCM terms:        0.071
   Time for Sigma-Completion:     0.000
   Size of expansion space: 15
   Lowest Energy          :     0.322458055899
   Maximum Energy change  :     0.388688427927 (vector 4)
   Maximum residual norm  :     0.004220549830

                       ****Iteration    1****
   Time for densities:            0.000
   Time for RI-J (Direct):        0.012
   Time for K (COSX):             0.047
   Time for XC-Integration:       0.019
   Time for LR-CPCM terms:        0.053
   Time for Sigma-Completion:     0.000
   Size of expansion space: 20
   Lowest Energy          :     0.319228484587
   Maximum Energy change  :     0.005278105563 (vector 4)
   Maximum residual norm  :     0.000131222966

                       ****Iteration    2****
   Time for densities:            0.000
   Time for RI-J (Direct):        0.012
   Time for K (COSX):             0.048
   Time for XC-Integration:       0.018
   Time for LR-CPCM terms:        0.049
   Time for Sigma-Completion:     0.000
   Size of expansion space: 25
   Lowest Energy          :     0.319224506433
   Maximum Energy change  :     0.000096700883 (vector 4)
   Maximum residual norm  :     0.000002938409

                       ****Iteration    3****
   Time for densities:            0.000
   Time for RI-J (Direct):        0.013
   Time for K (COSX):             0.044
   Time for XC-Integration:       0.018
   Time for LR-CPCM terms:        0.050
   Time for Sigma-Completion:     0.000
   Size of expansion space: 30
   Lowest Energy          :     0.319224483528
   Maximum Energy change  :     0.000002357151 (vector 4)
   Maximum residual norm  :     0.000000028619

      *** CONVERGENCE OF RESIDUAL NORM REACHED ***

Storing the converged CI vectors               ... ../../mol/ORCA_in/CO.2.cis1

                 *** DAVIDSON DONE ***

Total time for solving the CIS problem:     0.606sec

------------------------------------
TD-DFT/TDA EXCITED STATES (SINGLETS)
------------------------------------

the weight of the individual excitations are printed if larger than 1.0e-02

STATE  1:  E=   0.319224 au      8.687 eV    70061.7 cm**-1 <S**2> =   0.000000
     9a ->  11a  :     0.498158 (c= -0.70580305)
    10a ->  12a  :     0.498160 (c= -0.70580440)

STATE  2:  E=   0.330014 au      8.980 eV    72429.8 cm**-1 <S**2> =   0.000000
     9a ->  12a  :     0.495915 (c=  0.70421261)
    10a ->  11a  :     0.495916 (c=  0.70421276)

STATE  3:  E=   0.330058 au      8.981 eV    72439.5 cm**-1 <S**2> =   0.000000
     9a ->  11a  :     0.495929 (c=  0.70422257)
    10a ->  12a  :     0.495928 (c= -0.70422122)

STATE  4:  E=   0.383311 au     10.430 eV    84127.1 cm**-1 <S**2> =   0.000000
    10a ->  13a  :     0.989473 (c=  0.99472276)

STATE  5:  E=   0.383311 au     10.430 eV    84127.1 cm**-1 <S**2> =   0.000000
     9a ->  13a  :     0.989473 (c= -0.99472276)


-----------------------------
TD-DFT/TDA-EXCITATION SPECTRA
-----------------------------

Center of mass = (  0.0000,  0.0000,  0.0281)
Calculating the Dipole integrals                  ... done
Transforming integrals                            ... done
Calculating the Linear Momentum integrals         ... done
Transforming integrals                            ... done
Calculating angular momentum integrals            ... done
Transforming integrals                            ... done

-----------------------------------------------------------------------------
         ABSORPTION SPECTRUM VIA TRANSITION ELECTRIC DIPOLE MOMENTS
-----------------------------------------------------------------------------
State   Energy    Wavelength  fosc         T2        TX        TY        TZ  
        (cm-1)      (nm)                 (au**2)    (au)      (au)      (au) 
-----------------------------------------------------------------------------
   1   70061.7    142.7   0.000000000   0.00000  -0.00000  -0.00000  -0.00000
   2   72429.8    138.1   0.000000000   0.00000  -0.00000   0.00000  -0.00000
   3   72439.5    138.0   0.000000000   0.00000   0.00000   0.00000   0.00000
   4   84127.1    118.9   0.000690046   0.00270   0.03547   0.03798  -0.00000
   5   84127.1    118.9   0.000690047   0.00270  -0.03798   0.03547  -0.00000

-----------------------------------------------------------------------------
         ABSORPTION SPECTRUM VIA TRANSITION VELOCITY DIPOLE MOMENTS
-----------------------------------------------------------------------------
State   Energy    Wavelength   fosc        P2         PX        PY        PZ  
        (cm-1)      (nm)                 (au**2)     (au)      (au)      (au) 
-----------------------------------------------------------------------------
   1   70061.7    142.7   0.000000000   0.00000   0.00000   0.00000   0.00000
   2   72429.8    138.1   0.000000000   0.00000   0.00000  -0.00000   0.00000
   3   72439.5    138.0   0.000000000   0.00000  -0.00000  -0.00000  -0.00000
   4   84127.1    118.9   0.000525885   0.00030  -0.01187  -0.01271   0.00000
   5   84127.1    118.9   0.000525885   0.00030   0.01271  -0.01187   0.00000

-------------------------------------------------------------------
                             CD SPECTRUM
-------------------------------------------------------------------
State  Energy     Wavelength     R         MX        MY        MZ   
       (cm-1)       (nm)     (1e40*cgs)   (au)      (au)      (au)  
-------------------------------------------------------------------
   1   70061.7    142.7     -0.00000   0.00000   0.00000  -0.00000
   2   72429.8    138.1      0.00000  -0.00000   0.00000  -0.00000
   3   72439.5    138.0      0.00000   0.00000   0.00000  -0.00000
   4   84127.1    118.9      0.00000  -0.25729   0.24026  -0.00000
   5   84127.1    118.9     -0.00000  -0.24026  -0.25729   0.00000

-------------------------------------------------------------------
         CD SPECTRUM VIA TRANSITION VELOCITY DIPOLE MOMENTS        
-------------------------------------------------------------------
State  Energy     Wavelength     R         MX        MY        MZ   
       (cm-1)       (nm)     (1e40*cgs)   (au)      (au)      (au)  
-------------------------------------------------------------------
   1   70061.7    142.7     -0.00000   0.00000   0.00000  -0.00000
   2   72429.8    138.1      0.00000  -0.00000   0.00000  -0.00000
   3   72439.5    138.0      0.00000   0.00000   0.00000  -0.00000
   4   84127.1    118.9     -0.00000  -0.25729   0.24026  -0.00000
   5   84127.1    118.9      0.00000  -0.24026  -0.25729   0.00000

Total run time:        0.851 sec

           *** ORCA-CIS/TD-DFT FINISHED WITHOUT ERROR ***

Maximum memory used throughout the entire CIS-calculation: 43.2 MB

-----------------------
CIS/TD-DFT TOTAL ENERGY
-----------------------

    E(SCF)  =   -188.341712052 Eh
    DE(CIS) =      0.319224484 Eh (Root  1)
    ----------------------------- ---------
    E(tot)  =   -188.022487569 Eh


-------------------------   --------------------
FINAL SINGLE POINT ENERGY      -188.022487568969
-------------------------   --------------------


                            ***************************************
                            *     ORCA property calculations      *
                            ***************************************

                                    ---------------------
                                    Active property flags
                                    ---------------------
   (+) Dipole Moment


------------------------------------------------------------------------------
                       ORCA ELECTRIC PROPERTIES CALCULATION
------------------------------------------------------------------------------

Dipole Moment Calculation                       ... on
Quadrupole Moment Calculation                   ... off
Polarizability Calculation                      ... off
GBWName                                         ... ../../mol/ORCA_in/CO.2.gbw
Electron density                                ... ../../mol/ORCA_in/CO.2.scfp
The origin for moment calculation is the CENTER OF MASS  = ( 0.000000,  0.000000  0.028114)

-------------
DIPOLE MOMENT
-------------
                                X             Y             Z
Electronic contribution:      0.00000       0.00000      -0.12435
Nuclear contribution   :      0.00000       0.00000       0.00017
                        -----------------------------------------
Total Dipole Moment    :      0.00000       0.00000      -0.12418
                        -----------------------------------------
Magnitude (a.u.)       :      0.12418
Magnitude (Debye)      :      0.31564



--------------------
Rotational spectrum 
--------------------
 
Rotational constants in cm-1:     0.000000     0.378630     0.378630 
Rotational constants in MHz :     0.000000 11351.028882 11351.028882 

 Dipole components along the rotational axes: 
x,y,z [a.u.] :    -0.124181     0.000000     0.000000 
x,y,z [Debye]:    -0.315643     0.000000     0.000000 

 

Timings for individual modules:

Sum of individual times         ...        1.904 sec (=   0.032 min)
GTO integral calculation        ...        0.085 sec (=   0.001 min)   4.5 %
SCF iterations                  ...        0.961 sec (=   0.016 min)  50.5 %
CIS module                      ...        0.858 sec (=   0.014 min)  45.1 %
                             ****ORCA TERMINATED NORMALLY****
TOTAL RUN TIME: 0 days 0 hours 0 minutes 2 seconds 2 msec
