
                                 *****************
                                 * O   R   C   A *
                                 *****************

                                            #,                                       
                                            ###                                      
                                            ####                                     
                                            #####                                    
                                            ######                                   
                                           ########,                                 
                                     ,,################,,,,,                         
                               ,,#################################,,                 
                          ,,##########################################,,             
                       ,#########################################, ''#####,          
                    ,#############################################,,   '####,        
                  ,##################################################,,,,####,       
                ,###########''''           ''''###############################       
              ,#####''   ,,,,##########,,,,          '''####'''          '####       
            ,##' ,,,,###########################,,,                        '##       
           ' ,,###''''                  '''############,,,                           
         ,,##''                                '''############,,,,        ,,,,,,###''
      ,#''                                            '''#######################'''  
     '                                                          ''''####''''         
             ,#######,   #######,   ,#######,      ##                                
            ,#'     '#,  ##    ##  ,#'     '#,    #''#        ######   ,####,        
            ##       ##  ##   ,#'  ##            #'  '#       #        #'  '#        
            ##       ##  #######   ##           ,######,      #####,   #    #        
            '#,     ,#'  ##    ##  '#,     ,#' ,#      #,         ##   #,  ,#        
             '#######'   ##     ##  '#######'  #'      '#     #####' # '####'        



                  #######################################################
                  #                        -***-                        #
                  #          Department of theory and spectroscopy      #
                  #    Directorship and core code : Frank Neese         #
                  #        Max Planck Institute fuer Kohlenforschung    #
                  #                Kaiser Wilhelm Platz 1               #
                  #                 D-45470 Muelheim/Ruhr               #
                  #                      Germany                        #
                  #                                                     #
                  #                  All rights reserved                #
                  #                        -***-                        #
                  #######################################################


                         Program Version 5.0.4 -  RELEASE  -


 With contributions from (in alphabetic order):
   Daniel Aravena         : Magnetic Suceptibility
   Michael Atanasov       : Ab Initio Ligand Field Theory (pilot matlab implementation)
   Alexander A. Auer      : GIAO ZORA, VPT2 properties, NMR spectrum
   Ute Becker             : Parallelization
   Giovanni Bistoni       : ED, misc. LED, open-shell LED, HFLD
   Martin Brehm           : Molecular dynamics
   Dmytro Bykov           : SCF Hessian
   Vijay G. Chilkuri      : MRCI spin determinant printing, contributions to CSF-ICE
   Dipayan Datta          : RHF DLPNO-CCSD density
   Achintya Kumar Dutta   : EOM-CC, STEOM-CC
   Dmitry Ganyushin       : Spin-Orbit,Spin-Spin,Magnetic field MRCI
   Miquel Garcia          : C-PCM and meta-GGA Hessian, CC/C-PCM, Gaussian charge scheme
   Yang Guo               : DLPNO-NEVPT2, F12-NEVPT2, CIM, IAO-localization
   Andreas Hansen         : Spin unrestricted coupled pair/coupled cluster methods
   Benjamin Helmich-Paris : MC-RPA, TRAH-SCF, COSX integrals
   Lee Huntington         : MR-EOM, pCC
   Robert Izsak           : Overlap fitted RIJCOSX, COSX-SCS-MP3, EOM
   Marcus Kettner         : VPT2
   Christian Kollmar      : KDIIS, OOCD, Brueckner-CCSD(T), CCSD density, CASPT2, CASPT2-K
   Simone Kossmann        : Meta GGA functionals, TD-DFT gradient, OOMP2, MP2 Hessian
   Martin Krupicka        : Initial AUTO-CI
   Lucas Lang             : DCDCAS
   Marvin Lechner         : AUTO-CI (C++ implementation), FIC-MRCC
   Dagmar Lenk            : GEPOL surface, SMD
   Dimitrios Liakos       : Extrapolation schemes; Compound Job, initial MDCI parallelization
   Dimitrios Manganas     : Further ROCIS development; embedding schemes
   Dimitrios Pantazis     : SARC Basis sets
   Anastasios Papadopoulos: AUTO-CI, single reference methods and gradients
   Taras Petrenko         : DFT Hessian,TD-DFT gradient, ASA, ECA, R-Raman, ABS, FL, XAS/XES, NRVS
   Peter Pinski           : DLPNO-MP2, DLPNO-MP2 Gradient
   Christoph Reimann      : Effective Core Potentials
   Marius Retegan         : Local ZFS, SOC
   Christoph Riplinger    : Optimizer, TS searches, QM/MM, DLPNO-CCSD(T), (RO)-DLPNO pert. Triples
   Tobias Risthaus        : Range-separated hybrids, TD-DFT gradient, RPA, STAB
   Michael Roemelt        : Original ROCIS implementation
   Masaaki Saitow         : Open-shell DLPNO-CCSD energy and density
   Barbara Sandhoefer     : DKH picture change effects
   Avijit Sen             : IP-ROCIS
   Kantharuban Sivalingam : CASSCF convergence, NEVPT2, FIC-MRCI
   Bernardo de Souza      : ESD, SOC TD-DFT
   Georgi Stoychev        : AutoAux, RI-MP2 NMR, DLPNO-MP2 response
   Willem Van den Heuvel  : Paramagnetic NMR
   Boris Wezisla          : Elementary symmetry handling
   Frank Wennmohs         : Technical directorship


 We gratefully acknowledge several colleagues who have allowed us to
 interface, adapt or use parts of their codes:
   Stefan Grimme, W. Hujo, H. Kruse, P. Pracht,  : VdW corrections, initial TS optimization,
                  C. Bannwarth, S. Ehlert          DFT functionals, gCP, sTDA/sTD-DF
   Ed Valeev, F. Pavosevic, A. Kumar             : LibInt (2-el integral package), F12 methods
   Garnet Chan, S. Sharma, J. Yang, R. Olivares  : DMRG
   Ulf Ekstrom                                   : XCFun DFT Library
   Mihaly Kallay                                 : mrcc  (arbitrary order and MRCC methods)
   Jiri Pittner, Ondrej Demel                    : Mk-CCSD
   Frank Weinhold                                : gennbo (NPA and NBO analysis)
   Christopher J. Cramer and Donald G. Truhlar   : smd solvation model
   Lars Goerigk                                  : TD-DFT with DH, B97 family of functionals
   V. Asgeirsson, H. Jonsson                     : NEB implementation
   FAccTs GmbH                                   : IRC, NEB, NEB-TS, DLPNO-Multilevel, CI-OPT
                                                   MM, QMMM, 2- and 3-layer-ONIOM, Crystal-QMMM,
                                                   LR-CPCM, SF, NACMEs, symmetry and pop. for TD-DFT,
                                                   nearIR, NL-DFT gradient (VV10), updates on ESD,
                                                   ML-optimized integration grids
   S Lehtola, MJT Oliveira, MAL Marques          : LibXC Library
   Liviu Ungur et al                             : ANISO software


 Your calculation uses the libint2 library for the computation of 2-el integrals
 For citations please refer to: http://libint.valeyev.net

 Your ORCA version has been built with support for libXC version: 5.1.0
 For citations please refer to: https://tddft.org/programs/libxc/

 This ORCA versions uses:
   CBLAS   interface :  Fast vector & matrix operations
   LAPACKE interface :  Fast linear algebra routines
   SCALAPACK package :  Parallel linear algebra routines
   Shared memory     :  Shared parallel matrices
   BLAS/LAPACK       :  OpenBLAS 0.3.15  USE64BITINT DYNAMIC_ARCH NO_AFFINITY Zen SINGLE_THREADED
        Core in use  :  Zen
   Copyright (c) 2011-2014, The OpenBLAS Project


================================================================================

----- Orbital basis set information -----
Your calculation utilizes the basis: def2-SVP
   F. Weigend and R. Ahlrichs, Phys. Chem. Chem. Phys. 7, 3297 (2005).

----- AuxJ basis set information -----
Your calculation utilizes the auxiliary basis: def2/J
   F. Weigend, Phys. Chem. Chem. Phys. 8, 1057 (2006).

================================================================================
                                        WARNINGS
                       Please study these warnings very carefully!
================================================================================

WARNING: Old DensityContainer found on disk!
         Will remove this file - 
         If you want to keep old densities, please start your calculation with a different basename. 

INFO   : Checking CIS options ...

WARNING: CIS/ROCIS methods need fully converged wavefunctions
  ===> : Setting SCFConvForced true
         You can overwrite this default with %scf ConvForced false 


INFO   : the flag for use of the SHARK integral package has been found!

================================================================================
                                       INPUT FILE
================================================================================
NAME = ../../mol/ORCA_in/CO.3.com
|  1> ! BHANDHLYP def2-SVP TightSCF
|  2> 
|  3> %CPCM
|  4> end
|  5> 
|  6> %tddft
|  7> NRoots 5
|  8> IRoot 1
|  9> end
| 10> 
| 11> #  2 
| 12> * xyz 0 1
| 13>  C 0.000000    0.000000    0.000000
| 14>  O 0.000000    0.000000    1.300000
| 15>  O 0.000000    0.000000   -1.159076
| 16> *
| 17> 
| 18>                          ****END OF INPUT****
================================================================================

                       ****************************
                       * Single Point Calculation *
                       ****************************

---------------------------------
CARTESIAN COORDINATES (ANGSTROEM)
---------------------------------
  C      0.000000    0.000000    0.000000
  O      0.000000    0.000000    1.300000
  O      0.000000    0.000000   -1.159076

----------------------------
CARTESIAN COORDINATES (A.U.)
----------------------------
  NO LB      ZA    FRAG     MASS         X           Y           Z
   0 C     6.0000    0    12.011    0.000000    0.000000    0.000000
   1 O     8.0000    0    15.999    0.000000    0.000000    2.456644
   2 O     8.0000    0    15.999    0.000000    0.000000   -2.190336

--------------------------------
INTERNAL COORDINATES (ANGSTROEM)
--------------------------------
 C      0   0   0     0.000000000000     0.00000000     0.00000000
 O      1   0   0     1.300000000000     0.00000000     0.00000000
 O      1   2   0     1.159076000000   180.00000000     0.00000000

---------------------------
INTERNAL COORDINATES (A.U.)
---------------------------
 C      0   0   0     0.000000000000     0.00000000     0.00000000
 O      1   0   0     2.456643974098     0.00000000     0.00000000
 O      1   2   0     2.190336208401   180.00000000     0.00000000

---------------------
BASIS SET INFORMATION
---------------------
There are 2 groups of distinct atoms

 Group   1 Type C   : 7s4p1d contracted to 3s2p1d pattern {511/31/1}
 Group   2 Type O   : 7s4p1d contracted to 3s2p1d pattern {511/31/1}

Atom   0C    basis set group =>   1
Atom   1O    basis set group =>   2
Atom   2O    basis set group =>   2
---------------------------------
AUXILIARY/J BASIS SET INFORMATION
---------------------------------
There are 2 groups of distinct atoms

 Group   1 Type C   : 12s5p4d2f1g contracted to 6s4p3d1f1g pattern {711111/2111/211/2/1}
 Group   2 Type O   : 12s5p4d2f1g contracted to 6s4p3d1f1g pattern {711111/2111/211/2/1}

Atom   0C    basis set group =>   1
Atom   1O    basis set group =>   2
Atom   2O    basis set group =>   2

Checking for AutoStart:
The File: ../../mol/ORCA_in/CO.3.gbw exists
Trying to determine its content:
     ... Fine, the file contains calculation information
     ... Fine, the calculation information was read
     ... Fine, the file contains a basis set
     ... Fine, the basis set was read
     ... Fine, the file contains a geometry
     ... Fine, the geometry was read
     ... Fine, the file contains a set of orbitals
     ... Fine, the orbitals can be read
     => possible old guess file was deleted
     => GBW file was renamed to GES file
     => GES file is set as startup file
     => Guess is set to MORead
     ... now leaving AutoStart

------------------------------------------------------------------------------
                           ORCA GTO INTEGRAL CALCULATION
                           -- RI-GTO INTEGRALS CHOSEN --
------------------------------------------------------------------------------
------------------------------------------------------------------------------
                   ___                                                        
                  /   \      - P O W E R E D   B Y -                         
                 /     \                                                     
                 |  |  |   _    _      __       _____    __    __             
                 |  |  |  | |  | |    /  \     |  _  \  |  |  /  |          
                  \  \/   | |  | |   /    \    | | | |  |  | /  /          
                 / \  \   | |__| |  /  /\  \   | |_| |  |  |/  /          
                |  |  |   |  __  | /  /__\  \  |    /   |      \           
                |  |  |   | |  | | |   __   |  |    \   |  |\   \          
                \     /   | |  | | |  |  |  |  | |\  \  |  | \   \       
                 \___/    |_|  |_| |__|  |__|  |_| \__\ |__|  \__/        
                                                                              
                      - O R C A' S   B I G   F R I E N D -                    
                                      &                                       
                       - I N T E G R A L  F E E D E R -                       
                                                                              
 v1 FN, 2020, v2 2021                                                         
------------------------------------------------------------------------------


Reading SHARK input file ../../mol/ORCA_in/CO.3.SHARKINP.tmp ... ok
----------------------
SHARK INTEGRAL PACKAGE
----------------------

Number of atoms                             ...      3
Number of basis functions                   ...     42
Number of shells                            ...     18
Maximum angular momentum                    ...      2
Integral batch strategy                     ... SHARK/LIBINT Hybrid
RI-J (if used) integral strategy            ... SPLIT-RIJ (Revised 2003 algorithm where possible)
Printlevel                                  ...      1
Contraction scheme used                     ... SEGMENTED contraction
Coulomb Range Separation                    ... NOT USED
Exchange Range Separation                   ... NOT USED
Finite Nucleus Model                        ... NOT USED
Auxiliary Coulomb fitting basis             ... AVAILABLE
   # of basis functions in Aux-J            ...    147
   # of shells in Aux-J                     ...     45
   Maximum angular momentum in Aux-J        ...      4
Auxiliary J/K fitting basis                 ... NOT available
Auxiliary Correlation fitting basis         ... NOT available
Auxiliary 'external' fitting basis          ... NOT available
Integral threshold                          ...     2.500000e-11
Primitive cut-off                           ...     2.500000e-12
Primitive pair pre-selection threshold      ...     2.500000e-12

Calculating pre-screening integrals         ... done (  0.0 sec) Dimension = 18
Organizing shell pair data                  ... done (  0.0 sec)
Shell pair information
Total number of shell pairs                 ...       171
Shell pairs after pre-screening             ...       170
Total number of primitive shell pairs       ...       705
Primitive shell pairs kept                  ...       602
          la=0 lb=0:     44 shell pairs
          la=1 lb=0:     54 shell pairs
          la=1 lb=1:     21 shell pairs
          la=2 lb=0:     27 shell pairs
          la=2 lb=1:     18 shell pairs
          la=2 lb=2:      6 shell pairs

Calculating one electron integrals          ... done (  0.0 sec)
Calculating RI/J V-Matrix + Cholesky decomp.... done (  0.0 sec)
Calculating Nuclear repulsion               ... done (  0.0 sec) ENN=     55.225679651151 Eh

SHARK setup successfully completed in   0.1 seconds

Maximum memory used throughout the entire GTOINT-calculation: 8.9 MB
-------------------------------------------------------------------------------
                                 ORCA SCF
-------------------------------------------------------------------------------

------------
SCF SETTINGS
------------
Hamiltonian:
 Density Functional     Method          .... DFT(GTOs)
 Exchange Functional    Exchange        .... B88
   X-Alpha parameter    XAlpha          ....  0.666667
   Becke's b parameter  XBeta           ....  0.004200
 Correlation Functional Correlation     .... LYP
 Gradients option       PostSCFGGA      .... off
 Hybrid DFT is turned on
   Fraction HF Exchange ScalHFX         ....  0.500000
   Scaling of DF-GGA-X  ScalDFX         ....  0.500000
   Scaling of DF-GGA-C  ScalDFC         ....  1.000000
   Scaling of DF-LDA-C  ScalLDAC        ....  1.000000
   Perturbative correction              ....  0.000000
   Density functional embedding theory  .... OFF
 RI-approximation to the Coulomb term is turned on
   Number of AuxJ basis functions       .... 147
   RIJ-COSX (HFX calculated with COS-X)).... on


General Settings:
 Integral files         IntName         .... ../../mol/ORCA_in/CO.3
 Hartree-Fock type      HFTyp           .... RHF
 Total Charge           Charge          ....    0
 Multiplicity           Mult            ....    1
 Number of Electrons    NEL             ....   22
 Basis Dimension        Dim             ....   42
 Nuclear Repulsion      ENuc            ....     55.2256796512 Eh

Convergence Acceleration:
 DIIS                   CNVDIIS         .... on
   Start iteration      DIISMaxIt       ....    12
   Startup error        DIISStart       ....  0.200000
   # of expansion vecs  DIISMaxEq       ....     5
   Bias factor          DIISBfac        ....   1.050
   Max. coefficient     DIISMaxC        ....  10.000
 Trust-Rad. Augm. Hess. CNVTRAH         .... auto
   Auto Start mean grad. ratio tolernc. ....  1.125000
   Auto Start start iteration           ....     1
   Auto Start num. interpolation iter.  ....    10
   Max. Number of Micro iterations      ....    16
   Max. Number of Macro iterations      .... Maxiter - #DIIS iter
   Number of Davidson start vectors     ....     2
   Converg. threshold I  (grad. norm)   ....   1.000e-05
   Converg. threshold II (energy diff.) ....   1.000e-08
   Grad. Scal. Fac. for Micro threshold ....   0.100
   Minimum threshold for Micro iter.    ....   0.010
   NR start threshold (gradient norm)   ....   0.001
   Initial trust radius                 ....   0.400
   Minimum AH scaling param. (alpha)    ....   1.000
   Maximum AH scaling param. (alpha)    .... 1000.000
   Orbital update algorithm             .... Taylor
   White noise on init. David. guess    .... on
   Maximum white noise                  ....   0.010
   Quad. conv. algorithm                .... NR
 SOSCF                  CNVSOSCF        .... on
   Start iteration      SOSCFMaxIt      ....   150
   Startup grad/error   SOSCFStart      ....  0.003300
 Level Shifting         CNVShift        .... on
   Level shift para.    LevelShift      ....    0.2500
   Turn off err/grad.   ShiftErr        ....    0.0010
 Zerner damping         CNVZerner       .... off
 Static damping         CNVDamp         .... on
   Fraction old density DampFac         ....    0.7000
   Max. Damping (<1)    DampMax         ....    0.9800
   Min. Damping (>=0)   DampMin         ....    0.0000
   Turn off err/grad.   DampErr         ....    0.1000
 Fernandez-Rico         CNVRico         .... off

SCF Procedure:
 Maximum # iterations   MaxIter         ....   125
 SCF integral mode      SCFMode         .... Direct
   Integral package                     .... SHARK and LIBINT hybrid scheme
 Reset frequency        DirectResetFreq ....    20
 Integral Threshold     Thresh          ....  2.500e-11 Eh
 Primitive CutOff       TCut            ....  2.500e-12 Eh

Convergence Tolerance:
 Convergence Check Mode ConvCheckMode   .... Total+1el-Energy
 Convergence forced     ConvForced      .... 1
 Energy Change          TolE            ....  1.000e-08 Eh
 1-El. energy change                    ....  1.000e-05 Eh
 Orbital Gradient       TolG            ....  1.000e-05
 Orbital Rotation angle TolX            ....  1.000e-05
 DIIS Error             TolErr          ....  5.000e-07


Diagonalization of the overlap matrix:
Smallest eigenvalue                        ... 9.513e-03
Time for diagonalization                   ...    0.000 sec
Threshold for overlap eigenvalues          ... 1.000e-08
Number of eigenvalues below threshold      ... 0
Time for construction of square roots      ...    0.000 sec
Total time needed                          ...    0.000 sec

---------------------
INITIAL GUESS: MOREAD
---------------------
Guess MOs are being read from file: ../../mol/ORCA_in/CO.3.ges
Input Geometry matches current geometry (good)
Input basis set matches current basis set (good)
MOs were renormalized
MOs were reorthogonalized (Cholesky)
                      ------------------
                      INITIAL GUESS DONE (   0.0 sec)
                      ------------------
-------------------
DFT GRID GENERATION
-------------------

General Integration Accuracy     IntAcc      ... 4.388
Radial Grid Type                 RadialGrid  ... OptM3 with GC (2021)
Angular Grid (max. ang.)         AngularGrid ... 4 (Lebedev-302)
Angular grid pruning method      GridPruning ... 4 (adaptive)
Weight generation scheme         WeightScheme... Becke
Basis function cutoff            BFCut       ... 1.0000e-11
Integration weight cutoff        WCut        ... 1.0000e-14
Angular grids for H and He will be reduced by one unit
Partially contracted basis set               ... off
Rotationally invariant grid construction     ... off

Total number of grid points                  ...    18362
Total number of batches                      ...      288
Average number of points per batch           ...       63
Average number of grid points per atom       ...     6121
Time for grid setup =    0.113 sec

--------------------
COSX GRID GENERATION
--------------------

GRIDX 1
-------
General Integration Accuracy     IntAcc      ... 3.816
Radial Grid Type                 RadialGrid  ... OptM3 with GC (2021)
Angular Grid (max. ang.)         AngularGrid ... 1 (Lebedev-50)
Angular grid pruning method      GridPruning ... 4 (adaptive)
Weight generation scheme         WeightScheme... Becke
Basis function cutoff            BFCut       ... 1.0000e-11
Integration weight cutoff        WCut        ... 1.0000e-14
Angular grids for H and He will be reduced by one unit
Partially contracted basis set               ... on
Rotationally invariant grid construction     ... off

Total number of grid points                  ...     2294
Total number of batches                      ...       37
Average number of points per batch           ...       62
Average number of grid points per atom       ...      765
UseSFitting                                  ... on

GRIDX 2
-------
General Integration Accuracy     IntAcc      ... 4.020
Radial Grid Type                 RadialGrid  ... OptM3 with GC (2021)
Angular Grid (max. ang.)         AngularGrid ... 2 (Lebedev-110)
Angular grid pruning method      GridPruning ... 4 (adaptive)
Weight generation scheme         WeightScheme... Becke
Basis function cutoff            BFCut       ... 1.0000e-11
Integration weight cutoff        WCut        ... 1.0000e-14
Angular grids for H and He will be reduced by one unit
Partially contracted basis set               ... on
Rotationally invariant grid construction     ... off

Total number of grid points                  ...     5632
Total number of batches                      ...       89
Average number of points per batch           ...       63
Average number of grid points per atom       ...     1877
UseSFitting                                  ... on

GRIDX 3
-------
General Integration Accuracy     IntAcc      ... 4.338
Radial Grid Type                 RadialGrid  ... OptM3 with GC (2021)
Angular Grid (max. ang.)         AngularGrid ... 3 (Lebedev-194)
Angular grid pruning method      GridPruning ... 4 (adaptive)
Weight generation scheme         WeightScheme... Becke
Basis function cutoff            BFCut       ... 1.0000e-11
Integration weight cutoff        WCut        ... 1.0000e-14
Angular grids for H and He will be reduced by one unit
Partially contracted basis set               ... on
Rotationally invariant grid construction     ... off

Total number of grid points                  ...    12570
Total number of batches                      ...      198
Average number of points per batch           ...       63
Average number of grid points per atom       ...     4190
UseSFitting                                  ... on

Time for X-Grid setup             =    0.110 sec


--------------------
CPCM SOLVATION MODEL
--------------------
CPCM parameters:
  Epsilon                                         ...     INFINITY
  Refrac                                          ...       1.0000
  Rsolv                                           ...       1.3000
  Surface type                                    ... GAUSSIAN VDW
  Epsilon function type                           ...         CPCM
Radii:
 Radius for C  used is    3.8550 Bohr (=   2.0400 Ang.)
 Radius for O  used is    3.4469 Bohr (=   1.8240 Ang.)
Calculating surface                               ...        done! (  0.0s)
GEPOL surface points                              ...          254
GEPOL Volume                                      ...     365.8783
GEPOL Surface-area                                ...     259.2662
Calculating surface distance matrix               ...        done! (  0.0s)
Performing Cholesky decomposition & store         ...        done! (  0.0s)
Overall time for CPCM initialization              ...                 0.0s
--------------
SCF ITERATIONS
--------------
ITER       Energy         Delta-E        Max-DP      RMS-DP      [F,P]     Damp
               ***  Starting incremental Fock matrix formation  ***
                      *** Initiating the SOSCF procedure ***
                      *** Re-Reading the Fockian *** 
                      *** Removing any level shift *** 
ITER      Energy       Delta-E        Grad      Rot      Max-DP    RMS-DP
  0   -188.31234785 -188.3123478527  0.000000  0.000000  0.000000  0.000000
               *** Restarting incremental Fock matrix formation ***
                 **** Energy Check signals convergence ****
              ***Rediagonalizing the Fockian in SOSCF/NRSCF***

               *****************************************************
               *                     SUCCESS                       *
               *           SCF CONVERGED AFTER   1 CYCLES          *
               *****************************************************

Old exchange energy                            =    -10.725880123 Eh
New exchange energy                            =    -10.725855496 Eh
Exchange energy change after final integration =      0.000024627 Eh
Total energy after final integration           =   -188.312323226 Eh
Final COS-X integration done in                =     0.250 sec

----------------
TOTAL SCF ENERGY
----------------

Total Energy       :         -188.31232323 Eh           -5124.23883 eV

Components:
Nuclear Repulsion  :           55.22567965 Eh            1502.76714 eV
Electronic Energy  :         -243.53800288 Eh           -6627.00597 eV
One Electron Energy:         -366.28092710 Eh           -9967.01074 eV
Two Electron Energy:          122.74292422 Eh            3340.00477 eV
Max COSX asymmetry :            0.00000170 Eh               0.00005 eV
CPCM Dielectric    :           -0.00489808 Eh              -0.13328 eV

Virial components:
Potential Energy   :         -374.89084902 Eh          -10201.29863 eV
Kinetic Energy     :          186.57852579 Eh            5077.05980 eV
Virial Ratio       :            2.00929259


DFT components:
N(Alpha)           :       10.999998351594 electrons
N(Beta)            :       10.999998351594 electrons
N(Total)           :       21.999996703189 electrons
E(X)               :      -10.813148781381 Eh       
E(C)               :       -0.785150875312 Eh       
E(XC)              :      -11.598299656693 Eh       
DFET-embed. en.    :        0.000000000000 Eh       
CPCM Solvation Model Properties:
Surface-charge          :           -0.00224145
Charge-correction       :            0.00001119 Eh               0.00030 eV
Free-energy (cav+disp)  :  This term is not implemented in the current solvation scheme

---------------
SCF CONVERGENCE
---------------

  Last Energy change         ...    5.8833e-12  Tolerance :   1.0000e-08
  Last MAX-Density change    ...    1.4433e-15  Tolerance :   1.0000e-07
  Last RMS-Density change    ...    1.1022e-16  Tolerance :   5.0000e-09
  Last Orbital Gradient      ...    1.4419e-07  Tolerance :   1.0000e-05
  Last Orbital Rotation      ...    2.9909e-07  Tolerance :   1.0000e-05

             **** THE GBW FILE WAS UPDATED (../../mol/ORCA_in/CO.3.gbw) ****
             **** DENSITY ../../mol/ORCA_in/CO.3.scfp WAS UPDATED ****
             **** ENERGY FILE WAS UPDATED (../../mol/ORCA_in/CO.3.en.tmp) ****
             **** THE GBW FILE WAS UPDATED (../../mol/ORCA_in/CO.3.gbw) ****
             **** DENSITY ../../mol/ORCA_in/CO.3.scfp WAS UPDATED ****
----------------
ORBITAL ENERGIES
----------------

  NO   OCC          E(Eh)            E(eV) 
   0   2.0000     -19.798073      -538.7330 
   1   2.0000     -19.763460      -537.7911 
   2   2.0000     -10.828599      -294.6612 
   3   2.0000      -1.298346       -35.3298 
   4   2.0000      -1.181311       -32.1451 
   5   2.0000      -0.665192       -18.1008 
   6   2.0000      -0.596015       -16.2184 
   7   2.0000      -0.583440       -15.8762 
   8   2.0000      -0.583440       -15.8762 
   9   2.0000      -0.431217       -11.7340 
  10   2.0000      -0.431217       -11.7340 
  11   0.0000       0.050867         1.3842 
  12   0.0000       0.050867         1.3842 
  13   0.0000       0.089687         2.4405 
  14   0.0000       0.389296        10.5933 
  15   0.0000       0.459835        12.5128 
  16   0.0000       0.490311        13.3420 
  17   0.0000       0.490311        13.3420 
  18   0.0000       0.786426        21.3997 
  19   0.0000       0.905515        24.6403 
  20   0.0000       0.994090        27.0506 
  21   0.0000       0.994090        27.0506 
  22   0.0000       1.100578        29.9483 
  23   0.0000       1.170870        31.8610 
  24   0.0000       1.170870        31.8610 
  25   0.0000       1.317873        35.8611 
  26   0.0000       1.626865        44.2692 
  27   0.0000       1.626870        44.2694 
  28   0.0000       1.635640        44.5080 
  29   0.0000       1.635640        44.5080 
  30   0.0000       1.675535        45.5936 
  31   0.0000       2.681167        72.9583 
  32   0.0000       2.681300        72.9619 
  33   0.0000       2.706048        73.6353 
  34   0.0000       2.765560        75.2547 
  35   0.0000       2.765685        75.2581 
  36   0.0000       2.833382        77.1003 
  37   0.0000       2.833382        77.1003 
  38   0.0000       3.516466        95.6879 
  39   0.0000       3.516466        95.6879 
  40   0.0000       3.532650        96.1283 
  41   0.0000       3.939303       107.1939 

                    ********************************
                    * MULLIKEN POPULATION ANALYSIS *
                    ********************************

-----------------------
MULLIKEN ATOMIC CHARGES
-----------------------
   0 C :    0.488305
   1 O :   -0.348790
   2 O :   -0.139515
Sum of atomic charges:   -0.0000000

--------------------------------
MULLIKEN REDUCED ORBITAL CHARGES
--------------------------------
  0 C s       :     3.007467  s :     3.007467
      pz      :     0.897554  p :     2.370416
      px      :     0.736431
      py      :     0.736431
      dz2     :     0.031400  d :     0.133812
      dxz     :     0.051206
      dyz     :     0.051206
      dx2y2   :     0.000000
      dxy     :     0.000000
  1 O s       :     3.828839  s :     3.828839
      pz      :     1.190023  p :     4.503544
      px      :     1.656761
      py      :     1.656761
      dz2     :     0.007732  d :     0.016406
      dxz     :     0.004337
      dyz     :     0.004337
      dx2y2   :     0.000000
      dxy     :     0.000000
  2 O s       :     3.733285  s :     3.733285
      pz      :     1.293572  p :     4.381482
      px      :     1.543955
      py      :     1.543955
      dz2     :     0.010128  d :     0.024748
      dxz     :     0.007310
      dyz     :     0.007310
      dx2y2   :     0.000000
      dxy     :     0.000000


                     *******************************
                     * LOEWDIN POPULATION ANALYSIS *
                     *******************************

----------------------
LOEWDIN ATOMIC CHARGES
----------------------
   0 C :    0.307210
   1 O :   -0.254468
   2 O :   -0.052743

-------------------------------
LOEWDIN REDUCED ORBITAL CHARGES
-------------------------------
  0 C s       :     2.858274  s :     2.858274
      pz      :     1.068749  p :     2.570648
      px      :     0.750950
      py      :     0.750950
      dz2     :     0.075633  d :     0.263867
      dxz     :     0.094117
      dyz     :     0.094117
      dx2y2   :     0.000000
      dxy     :     0.000000
  1 O s       :     3.633372  s :     3.633372
      pz      :     1.327936  p :     4.594236
      px      :     1.633150
      py      :     1.633150
      dz2     :     0.017592  d :     0.026860
      dxz     :     0.004634
      dyz     :     0.004634
      dx2y2   :     0.000000
      dxy     :     0.000000
  2 O s       :     3.532857  s :     3.532857
      pz      :     1.463879  p :     4.481546
      px      :     1.508833
      py      :     1.508833
      dz2     :     0.021708  d :     0.038340
      dxz     :     0.008316
      dyz     :     0.008316
      dx2y2   :     0.000000
      dxy     :     0.000000


                      *****************************
                      * MAYER POPULATION ANALYSIS *
                      *****************************

  NA   - Mulliken gross atomic population
  ZA   - Total nuclear charge
  QA   - Mulliken gross atomic charge
  VA   - Mayer's total valence
  BVA  - Mayer's bonded valence
  FA   - Mayer's free valence

  ATOM       NA         ZA         QA         VA         BVA        FA
  0 C      5.5117     6.0000     0.4883     4.1532     4.1532    -0.0000
  1 O      8.3488     8.0000    -0.3488     2.1484     2.1484    -0.0000
  2 O      8.1395     8.0000    -0.1395     2.4136     2.4136     0.0000

  Mayer bond orders larger than 0.100000
B(  0-C ,  1-O ) :   1.9440 B(  0-C ,  2-O ) :   2.2092 B(  1-O ,  2-O ) :   0.2044 


-------
TIMINGS
-------

Total SCF time: 0 days 0 hours 0 min 1 sec 

Total time                  ....       1.176 sec
Sum of individual times     ....       1.128 sec  ( 95.9%)

Fock matrix formation       ....       0.902 sec  ( 76.7%)
  Split-RI-J                ....       0.114 sec  ( 12.6% of F)
  Chain of spheres X        ....       0.545 sec  ( 60.4% of F)
  XC integration            ....       0.130 sec  ( 14.4% of F)
    Basis function eval.    ....       0.055 sec  ( 42.2% of XC)
    Density eval.           ....       0.024 sec  ( 18.7% of XC)
    XC-Functional eval.     ....       0.028 sec  ( 21.2% of XC)
    XC-Potential eval.      ....       0.015 sec  ( 11.8% of XC)
Diagonalization             ....       0.000 sec  (  0.0%)
Density matrix formation    ....       0.000 sec  (  0.0%)
Population analysis         ....       0.001 sec  (  0.1%)
Initial guess               ....       0.001 sec  (  0.0%)
Orbital Transformation      ....       0.000 sec  (  0.0%)
Orbital Orthonormalization  ....       0.000 sec  (  0.0%)
DIIS solution               ....       0.000 sec  (  0.0%)
SOSCF solution              ....       0.000 sec  (  0.0%)
Grid generation             ....       0.223 sec  ( 19.0%)

Maximum memory used throughout the entire SCF-calculation: 45.5 MB
------------------------------------------------------------------------------
                        ORCA TD-DFT/TDA CALCULATION
------------------------------------------------------------------------------

Input orbitals are from        ... ../../mol/ORCA_in/CO.3.gbw
CI-vector output               ... ../../mol/ORCA_in/CO.3.cis
Tamm-Dancoff approximation     ... operative
CIS-Integral strategy          ... AO-integrals
Integral handling              ... AO integral Direct
Max. core memory used          ... 512 MB
Reference state                ... RHF
Generation of triplets         ... off
Follow IRoot                   ... off
Number of operators            ... 1
Orbital ranges used for CIS calculation:
 Operator 0:  Orbitals   3... 10  to  11... 41
XAS localization array:
 Operator 0:  Orbitals  -1... -1

-------------------
XC-INTEGRATION GRID
-------------------

General Integration Accuracy     IntAcc      ... 3.467
Radial Grid Type                 RadialGrid  ... OptM3 with GC (2021)
Angular Grid (max. ang.)         AngularGrid ... 1 (Lebedev-50)
Angular grid pruning method      GridPruning ... 4 (adaptive)
Weight generation scheme         WeightScheme... Becke
Basis function cutoff            BFCut       ... 1.0000e-11
Integration weight cutoff        WCut        ... 1.0000e-14
Angular grids for H and He will be reduced by one unit
Partially contracted basis set               ... off
Rotationally invariant grid construction     ... off

Total number of grid points                  ...     2878
Total number of batches                      ...       46
Average number of points per batch           ...       62
Average number of grid points per atom       ...      959

---------------------
COSX-INTEGRATION GRID
---------------------

General Integration Accuracy     IntAcc      ... 3.067
Radial Grid Type                 RadialGrid  ... OptM3 with GC (2021)
Angular Grid (max. ang.)         AngularGrid ... 1 (Lebedev-50)
Angular grid pruning method      GridPruning ... 4 (adaptive)
Weight generation scheme         WeightScheme... Becke
Basis function cutoff            BFCut       ... 1.0000e-11
Integration weight cutoff        WCut        ... 1.0000e-14
Angular grids for H and He will be reduced by one unit
Partially contracted basis set               ... on
Rotationally invariant grid construction     ... off

Total number of grid points                  ...     1261
Total number of batches                      ...       20
Average number of points per batch           ...       63
Average number of grid points per atom       ...      420

---------------
TD-DFT XC SETUP
---------------

DFT calculation                         ... on
Name of the grid file                   ... ../../mol/ORCA_in/CO.3.grid_cis.tmp
Exchange functional (TD-DFT)            ... B88
   X-Alpha parameter    XAlpha (TD-DFT) ...  0.666667
   Becke's b parameter  XBeta (TD-DFT)  ...  0.004200
Correlation functional (TD-DFT)         ... LYP
Hybrid DFT                              ... on
   Exchange mixing (TD-DFT)             ...  0.500
   GGA exch. scaling (TD-DFT)           ...  0.500
   GGA corr. scaling (TD-DFT)           ...  1.000

Building densities             ... done
Calculating rho(r) on the grid ... done
Building xc-kernel on the grid ... done
                    *** TD-DFT CALCULATION INITIALIZED ***

---------------------------------
    LR-CPCM (non-equilibrium)
---------------------------------

Setting up LR-CPCM             ... done

------------------------
DAVIDSON-DIAGONALIZATION
------------------------

Dimension of the eigenvalue problem            ...    248
Number of roots to be determined               ...      5
Maximum size of the expansion space            ...     50
Maximum number of iterations                   ...    100
Convergence tolerance for the residual         ...    2.500e-07
Convergence tolerance for the energies         ...    2.500e-07
Orthogonality tolerance                        ...    1.000e-14
Level Shift                                    ...    0.000e+00
Constructing the preconditioner                ... o.k.
Building the initial guess                     ... o.k.
Number of trial vectors determined             ...     50


                       ****Iteration    0****

   Memory handling for direct AO based CIS:
   Memory per vector needed      ...     1 MB
   Memory needed                 ...     1 MB
   Memory available              ...   512 MB
   Number of vectors per batch   ...   512
   Number of batches             ...     1
   Time for densities:            0.000
   Time for RI-J (Direct):        0.016
   Time for K (COSX):             0.061
   Time for XC-Integration:       0.065
   Time for LR-CPCM terms:        0.079
   Time for Sigma-Completion:     0.001
   Size of expansion space: 15
   Lowest Energy          :     0.288984835683
   Maximum Energy change  :     0.350634029408 (vector 4)
   Maximum residual norm  :     0.005308602155

                       ****Iteration    1****
   Time for densities:            0.000
   Time for RI-J (Direct):        0.016
   Time for K (COSX):             0.060
   Time for XC-Integration:       0.019
   Time for LR-CPCM terms:        0.060
   Time for Sigma-Completion:     0.000
   Size of expansion space: 20
   Lowest Energy          :     0.286117956652
   Maximum Energy change  :     0.007337839466 (vector 4)
   Maximum residual norm  :     0.000219625633

                       ****Iteration    2****
   Time for densities:            0.000
   Time for RI-J (Direct):        0.013
   Time for K (COSX):             0.042
   Time for XC-Integration:       0.017
   Time for LR-CPCM terms:        0.054
   Time for Sigma-Completion:     0.000
   Size of expansion space: 25
   Lowest Energy          :     0.286114907012
   Maximum Energy change  :     0.000155302681 (vector 4)
   Maximum residual norm  :     0.000004697526

                       ****Iteration    3****
   Time for densities:            0.000
   Time for RI-J (Direct):        0.011
   Time for K (COSX):             0.041
   Time for XC-Integration:       0.016
   Time for LR-CPCM terms:        0.058
   Time for Sigma-Completion:     0.000
   Size of expansion space: 30
   Lowest Energy          :     0.286114901291
   Maximum Energy change  :     0.000004049012 (vector 4)
   Maximum residual norm  :     0.000000078214

      *** CONVERGENCE OF RESIDUAL NORM REACHED ***

Storing the converged CI vectors               ... ../../mol/ORCA_in/CO.3.cis1

                 *** DAVIDSON DONE ***

Total time for solving the CIS problem:     0.653sec

------------------------------------
TD-DFT/TDA EXCITED STATES (SINGLETS)
------------------------------------

the weight of the individual excitations are printed if larger than 1.0e-02

STATE  1:  E=   0.286115 au      7.786 eV    62795.0 cm**-1 <S**2> =   0.000000
     9a ->  11a  :     0.497728 (c= -0.70549807)
    10a ->  12a  :     0.497730 (c= -0.70549999)

STATE  2:  E=   0.296625 au      8.072 eV    65101.6 cm**-1 <S**2> =   0.000000
     9a ->  12a  :     0.494920 (c=  0.70350569)
    10a ->  11a  :     0.494921 (c=  0.70350595)

STATE  3:  E=   0.296703 au      8.074 eV    65118.7 cm**-1 <S**2> =   0.000000
     9a ->  11a  :     0.494928 (c=  0.70351141)
    10a ->  12a  :     0.494926 (c= -0.70350950)

STATE  4:  E=   0.343137 au      9.337 eV    75309.8 cm**-1 <S**2> =   0.000000
    10a ->  13a  :     0.983592 (c= -0.99176187)

STATE  5:  E=   0.343137 au      9.337 eV    75309.8 cm**-1 <S**2> =   0.000000
     9a ->  13a  :     0.983592 (c= -0.99176187)


-----------------------------
TD-DFT/TDA-EXCITATION SPECTRA
-----------------------------

Center of mass = (  0.0000,  0.0000,  0.0968)
Calculating the Dipole integrals                  ... done
Transforming integrals                            ... done
Calculating the Linear Momentum integrals         ... done
Transforming integrals                            ... done
Calculating angular momentum integrals            ... done
Transforming integrals                            ... done

-----------------------------------------------------------------------------
         ABSORPTION SPECTRUM VIA TRANSITION ELECTRIC DIPOLE MOMENTS
-----------------------------------------------------------------------------
State   Energy    Wavelength  fosc         T2        TX        TY        TZ  
        (cm-1)      (nm)                 (au**2)    (au)      (au)      (au) 
-----------------------------------------------------------------------------
   1   62795.0    159.2   0.000000000   0.00000   0.00000   0.00000  -0.00000
   2   65101.6    153.6   0.000000000   0.00000  -0.00000   0.00000   0.00000
   3   65118.7    153.6   0.000000000   0.00000  -0.00000  -0.00000   0.00000
   4   75309.8    132.8   0.005282695   0.02309  -0.10282  -0.11189   0.00000
   5   75309.8    132.8   0.005282703   0.02309   0.11189  -0.10282   0.00000

-----------------------------------------------------------------------------
         ABSORPTION SPECTRUM VIA TRANSITION VELOCITY DIPOLE MOMENTS
-----------------------------------------------------------------------------
State   Energy    Wavelength   fosc        P2         PX        PY        PZ  
        (cm-1)      (nm)                 (au**2)     (au)      (au)      (au) 
-----------------------------------------------------------------------------
   1   62795.0    159.2   0.000000000   0.00000   0.00000  -0.00000  -0.00000
   2   65101.6    153.6   0.000000000   0.00000   0.00000  -0.00000  -0.00000
   3   65118.7    153.6   0.000000000   0.00000   0.00000   0.00000  -0.00000
   4   75309.8    132.8   0.004561947   0.00235   0.03279   0.03568  -0.00000
   5   75309.8    132.8   0.004561952   0.00235  -0.03568   0.03279  -0.00000

-------------------------------------------------------------------
                             CD SPECTRUM
-------------------------------------------------------------------
State  Energy     Wavelength     R         MX        MY        MZ   
       (cm-1)       (nm)     (1e40*cgs)   (au)      (au)      (au)  
-------------------------------------------------------------------
   1   62795.0    159.2      0.00000   0.00000  -0.00000   0.00000
   2   65101.6    153.6     -0.00000   0.00000  -0.00000  -0.00000
   3   65118.7    153.6     -0.00000   0.00000   0.00000   0.00000
   4   75309.8    132.8      0.00000   0.16641  -0.15292   0.00000
   5   75309.8    132.8     -0.00000   0.15292   0.16641  -0.00000

-------------------------------------------------------------------
         CD SPECTRUM VIA TRANSITION VELOCITY DIPOLE MOMENTS        
-------------------------------------------------------------------
State  Energy     Wavelength     R         MX        MY        MZ   
       (cm-1)       (nm)     (1e40*cgs)   (au)      (au)      (au)  
-------------------------------------------------------------------
   1   62795.0    159.2     -0.00000   0.00000  -0.00000   0.00000
   2   65101.6    153.6     -0.00000   0.00000  -0.00000  -0.00000
   3   65118.7    153.6     -0.00000   0.00000   0.00000   0.00000
   4   75309.8    132.8     -0.00000   0.16641  -0.15292   0.00000
   5   75309.8    132.8      0.00000   0.15292   0.16641  -0.00000

Total run time:        0.885 sec

           *** ORCA-CIS/TD-DFT FINISHED WITHOUT ERROR ***

Maximum memory used throughout the entire CIS-calculation: 43.2 MB

-----------------------
CIS/TD-DFT TOTAL ENERGY
-----------------------

    E(SCF)  =   -188.312323226 Eh
    DE(CIS) =      0.286114901 Eh (Root  1)
    ----------------------------- ---------
    E(tot)  =   -188.026208325 Eh


-------------------------   --------------------
FINAL SINGLE POINT ENERGY      -188.026208324753
-------------------------   --------------------


                            ***************************************
                            *     ORCA property calculations      *
                            ***************************************

                                    ---------------------
                                    Active property flags
                                    ---------------------
   (+) Dipole Moment


------------------------------------------------------------------------------
                       ORCA ELECTRIC PROPERTIES CALCULATION
------------------------------------------------------------------------------

Dipole Moment Calculation                       ... on
Quadrupole Moment Calculation                   ... off
Polarizability Calculation                      ... off
GBWName                                         ... ../../mol/ORCA_in/CO.3.gbw
Electron density                                ... ../../mol/ORCA_in/CO.3.scfp
The origin for moment calculation is the CENTER OF MASS  = ( 0.000000,  0.000000  0.096813)

-------------
DIPOLE MOMENT
-------------
                                X             Y             Z
Electronic contribution:     -0.00000       0.00000      -0.40379
Nuclear contribution   :      0.00000       0.00000       0.00057
                        -----------------------------------------
Total Dipole Moment    :     -0.00000       0.00000      -0.40322
                        -----------------------------------------
Magnitude (a.u.)       :      0.40322
Magnitude (Debye)      :      1.02491



--------------------
Rotational spectrum 
--------------------
 
Rotational constants in cm-1:     0.000000     0.348178     0.348178 
Rotational constants in MHz :     0.000000 10438.107512 10438.107512 

 Dipole components along the rotational axes: 
x,y,z [a.u.] :    -0.403223     0.000000    -0.000000 
x,y,z [Debye]:    -1.024913     0.000000    -0.000000 

 

Timings for individual modules:

Sum of individual times         ...        2.160 sec (=   0.036 min)
GTO integral calculation        ...        0.087 sec (=   0.001 min)   4.0 %
SCF iterations                  ...        1.182 sec (=   0.020 min)  54.7 %
CIS module                      ...        0.892 sec (=   0.015 min)  41.3 %
                             ****ORCA TERMINATED NORMALLY****
TOTAL RUN TIME: 0 days 0 hours 0 minutes 2 seconds 255 msec
