
                                 *****************
                                 * O   R   C   A *
                                 *****************

                                            #,                                       
                                            ###                                      
                                            ####                                     
                                            #####                                    
                                            ######                                   
                                           ########,                                 
                                     ,,################,,,,,                         
                               ,,#################################,,                 
                          ,,##########################################,,             
                       ,#########################################, ''#####,          
                    ,#############################################,,   '####,        
                  ,##################################################,,,,####,       
                ,###########''''           ''''###############################       
              ,#####''   ,,,,##########,,,,          '''####'''          '####       
            ,##' ,,,,###########################,,,                        '##       
           ' ,,###''''                  '''############,,,                           
         ,,##''                                '''############,,,,        ,,,,,,###''
      ,#''                                            '''#######################'''  
     '                                                          ''''####''''         
             ,#######,   #######,   ,#######,      ##                                
            ,#'     '#,  ##    ##  ,#'     '#,    #''#        ######   ,####,        
            ##       ##  ##   ,#'  ##            #'  '#       #        #'  '#        
            ##       ##  #######   ##           ,######,      #####,   #    #        
            '#,     ,#'  ##    ##  '#,     ,#' ,#      #,         ##   #,  ,#        
             '#######'   ##     ##  '#######'  #'      '#     #####' # '####'        



                  #######################################################
                  #                        -***-                        #
                  #          Department of theory and spectroscopy      #
                  #    Directorship and core code : Frank Neese         #
                  #        Max Planck Institute fuer Kohlenforschung    #
                  #                Kaiser Wilhelm Platz 1               #
                  #                 D-45470 Muelheim/Ruhr               #
                  #                      Germany                        #
                  #                                                     #
                  #                  All rights reserved                #
                  #                        -***-                        #
                  #######################################################


                         Program Version 5.0.4 -  RELEASE  -


 With contributions from (in alphabetic order):
   Daniel Aravena         : Magnetic Suceptibility
   Michael Atanasov       : Ab Initio Ligand Field Theory (pilot matlab implementation)
   Alexander A. Auer      : GIAO ZORA, VPT2 properties, NMR spectrum
   Ute Becker             : Parallelization
   Giovanni Bistoni       : ED, misc. LED, open-shell LED, HFLD
   Martin Brehm           : Molecular dynamics
   Dmytro Bykov           : SCF Hessian
   Vijay G. Chilkuri      : MRCI spin determinant printing, contributions to CSF-ICE
   Dipayan Datta          : RHF DLPNO-CCSD density
   Achintya Kumar Dutta   : EOM-CC, STEOM-CC
   Dmitry Ganyushin       : Spin-Orbit,Spin-Spin,Magnetic field MRCI
   Miquel Garcia          : C-PCM and meta-GGA Hessian, CC/C-PCM, Gaussian charge scheme
   Yang Guo               : DLPNO-NEVPT2, F12-NEVPT2, CIM, IAO-localization
   Andreas Hansen         : Spin unrestricted coupled pair/coupled cluster methods
   Benjamin Helmich-Paris : MC-RPA, TRAH-SCF, COSX integrals
   Lee Huntington         : MR-EOM, pCC
   Robert Izsak           : Overlap fitted RIJCOSX, COSX-SCS-MP3, EOM
   Marcus Kettner         : VPT2
   Christian Kollmar      : KDIIS, OOCD, Brueckner-CCSD(T), CCSD density, CASPT2, CASPT2-K
   Simone Kossmann        : Meta GGA functionals, TD-DFT gradient, OOMP2, MP2 Hessian
   Martin Krupicka        : Initial AUTO-CI
   Lucas Lang             : DCDCAS
   Marvin Lechner         : AUTO-CI (C++ implementation), FIC-MRCC
   Dagmar Lenk            : GEPOL surface, SMD
   Dimitrios Liakos       : Extrapolation schemes; Compound Job, initial MDCI parallelization
   Dimitrios Manganas     : Further ROCIS development; embedding schemes
   Dimitrios Pantazis     : SARC Basis sets
   Anastasios Papadopoulos: AUTO-CI, single reference methods and gradients
   Taras Petrenko         : DFT Hessian,TD-DFT gradient, ASA, ECA, R-Raman, ABS, FL, XAS/XES, NRVS
   Peter Pinski           : DLPNO-MP2, DLPNO-MP2 Gradient
   Christoph Reimann      : Effective Core Potentials
   Marius Retegan         : Local ZFS, SOC
   Christoph Riplinger    : Optimizer, TS searches, QM/MM, DLPNO-CCSD(T), (RO)-DLPNO pert. Triples
   Tobias Risthaus        : Range-separated hybrids, TD-DFT gradient, RPA, STAB
   Michael Roemelt        : Original ROCIS implementation
   Masaaki Saitow         : Open-shell DLPNO-CCSD energy and density
   Barbara Sandhoefer     : DKH picture change effects
   Avijit Sen             : IP-ROCIS
   Kantharuban Sivalingam : CASSCF convergence, NEVPT2, FIC-MRCI
   Bernardo de Souza      : ESD, SOC TD-DFT
   Georgi Stoychev        : AutoAux, RI-MP2 NMR, DLPNO-MP2 response
   Willem Van den Heuvel  : Paramagnetic NMR
   Boris Wezisla          : Elementary symmetry handling
   Frank Wennmohs         : Technical directorship


 We gratefully acknowledge several colleagues who have allowed us to
 interface, adapt or use parts of their codes:
   Stefan Grimme, W. Hujo, H. Kruse, P. Pracht,  : VdW corrections, initial TS optimization,
                  C. Bannwarth, S. Ehlert          DFT functionals, gCP, sTDA/sTD-DF
   Ed Valeev, F. Pavosevic, A. Kumar             : LibInt (2-el integral package), F12 methods
   Garnet Chan, S. Sharma, J. Yang, R. Olivares  : DMRG
   Ulf Ekstrom                                   : XCFun DFT Library
   Mihaly Kallay                                 : mrcc  (arbitrary order and MRCC methods)
   Jiri Pittner, Ondrej Demel                    : Mk-CCSD
   Frank Weinhold                                : gennbo (NPA and NBO analysis)
   Christopher J. Cramer and Donald G. Truhlar   : smd solvation model
   Lars Goerigk                                  : TD-DFT with DH, B97 family of functionals
   V. Asgeirsson, H. Jonsson                     : NEB implementation
   FAccTs GmbH                                   : IRC, NEB, NEB-TS, DLPNO-Multilevel, CI-OPT
                                                   MM, QMMM, 2- and 3-layer-ONIOM, Crystal-QMMM,
                                                   LR-CPCM, SF, NACMEs, symmetry and pop. for TD-DFT,
                                                   nearIR, NL-DFT gradient (VV10), updates on ESD,
                                                   ML-optimized integration grids
   S Lehtola, MJT Oliveira, MAL Marques          : LibXC Library
   Liviu Ungur et al                             : ANISO software


 Your calculation uses the libint2 library for the computation of 2-el integrals
 For citations please refer to: http://libint.valeyev.net

 Your ORCA version has been built with support for libXC version: 5.1.0
 For citations please refer to: https://tddft.org/programs/libxc/

 This ORCA versions uses:
   CBLAS   interface :  Fast vector & matrix operations
   LAPACKE interface :  Fast linear algebra routines
   SCALAPACK package :  Parallel linear algebra routines
   Shared memory     :  Shared parallel matrices
   BLAS/LAPACK       :  OpenBLAS 0.3.15  USE64BITINT DYNAMIC_ARCH NO_AFFINITY Zen SINGLE_THREADED
        Core in use  :  Zen
   Copyright (c) 2011-2014, The OpenBLAS Project


================================================================================

----- Orbital basis set information -----
Your calculation utilizes the basis: def2-SVP
   F. Weigend and R. Ahlrichs, Phys. Chem. Chem. Phys. 7, 3297 (2005).

----- AuxJ basis set information -----
Your calculation utilizes the auxiliary basis: def2/J
   F. Weigend, Phys. Chem. Chem. Phys. 8, 1057 (2006).

================================================================================
                                        WARNINGS
                       Please study these warnings very carefully!
================================================================================

WARNING: Old DensityContainer found on disk!
         Will remove this file - 
         If you want to keep old densities, please start your calculation with a different basename. 

INFO   : Checking CIS options ...

WARNING: CIS/ROCIS methods need fully converged wavefunctions
  ===> : Setting SCFConvForced true
         You can overwrite this default with %scf ConvForced false 


INFO   : the flag for use of the SHARK integral package has been found!

================================================================================
                                       INPUT FILE
================================================================================
NAME = ../../mol/ORCA_in/CO.4.com
|  1> ! BHANDHLYP def2-SVP TightSCF
|  2> 
|  3> %CPCM
|  4> end
|  5> 
|  6> %tddft
|  7> NRoots 5
|  8> IRoot 1
|  9> end
| 10> 
| 11> #  3 
| 12> * xyz 0 1
| 13>  C 0.000000    0.000000    0.000000
| 14>  O 0.000000    0.000000    1.400000
| 15>  O 0.000000    0.000000   -1.159076
| 16> *
| 17> 
| 18>                          ****END OF INPUT****
================================================================================

                       ****************************
                       * Single Point Calculation *
                       ****************************

---------------------------------
CARTESIAN COORDINATES (ANGSTROEM)
---------------------------------
  C      0.000000    0.000000    0.000000
  O      0.000000    0.000000    1.400000
  O      0.000000    0.000000   -1.159076

----------------------------
CARTESIAN COORDINATES (A.U.)
----------------------------
  NO LB      ZA    FRAG     MASS         X           Y           Z
   0 C     6.0000    0    12.011    0.000000    0.000000    0.000000
   1 O     8.0000    0    15.999    0.000000    0.000000    2.645617
   2 O     8.0000    0    15.999    0.000000    0.000000   -2.190336

--------------------------------
INTERNAL COORDINATES (ANGSTROEM)
--------------------------------
 C      0   0   0     0.000000000000     0.00000000     0.00000000
 O      1   0   0     1.400000000000     0.00000000     0.00000000
 O      1   2   0     1.159076000000   180.00000000     0.00000000

---------------------------
INTERNAL COORDINATES (A.U.)
---------------------------
 C      0   0   0     0.000000000000     0.00000000     0.00000000
 O      1   0   0     2.645616587490     0.00000000     0.00000000
 O      1   2   0     2.190336208401   180.00000000     0.00000000

---------------------
BASIS SET INFORMATION
---------------------
There are 2 groups of distinct atoms

 Group   1 Type C   : 7s4p1d contracted to 3s2p1d pattern {511/31/1}
 Group   2 Type O   : 7s4p1d contracted to 3s2p1d pattern {511/31/1}

Atom   0C    basis set group =>   1
Atom   1O    basis set group =>   2
Atom   2O    basis set group =>   2
---------------------------------
AUXILIARY/J BASIS SET INFORMATION
---------------------------------
There are 2 groups of distinct atoms

 Group   1 Type C   : 12s5p4d2f1g contracted to 6s4p3d1f1g pattern {711111/2111/211/2/1}
 Group   2 Type O   : 12s5p4d2f1g contracted to 6s4p3d1f1g pattern {711111/2111/211/2/1}

Atom   0C    basis set group =>   1
Atom   1O    basis set group =>   2
Atom   2O    basis set group =>   2

Checking for AutoStart:
The File: ../../mol/ORCA_in/CO.4.gbw exists
Trying to determine its content:
     ... Fine, the file contains calculation information
     ... Fine, the calculation information was read
     ... Fine, the file contains a basis set
     ... Fine, the basis set was read
     ... Fine, the file contains a geometry
     ... Fine, the geometry was read
     ... Fine, the file contains a set of orbitals
     ... Fine, the orbitals can be read
     => possible old guess file was deleted
     => GBW file was renamed to GES file
     => GES file is set as startup file
     => Guess is set to MORead
     ... now leaving AutoStart

------------------------------------------------------------------------------
                           ORCA GTO INTEGRAL CALCULATION
                           -- RI-GTO INTEGRALS CHOSEN --
------------------------------------------------------------------------------
------------------------------------------------------------------------------
                   ___                                                        
                  /   \      - P O W E R E D   B Y -                         
                 /     \                                                     
                 |  |  |   _    _      __       _____    __    __             
                 |  |  |  | |  | |    /  \     |  _  \  |  |  /  |          
                  \  \/   | |  | |   /    \    | | | |  |  | /  /          
                 / \  \   | |__| |  /  /\  \   | |_| |  |  |/  /          
                |  |  |   |  __  | /  /__\  \  |    /   |      \           
                |  |  |   | |  | | |   __   |  |    \   |  |\   \          
                \     /   | |  | | |  |  |  |  | |\  \  |  | \   \       
                 \___/    |_|  |_| |__|  |__|  |_| \__\ |__|  \__/        
                                                                              
                      - O R C A' S   B I G   F R I E N D -                    
                                      &                                       
                       - I N T E G R A L  F E E D E R -                       
                                                                              
 v1 FN, 2020, v2 2021                                                         
------------------------------------------------------------------------------


Reading SHARK input file ../../mol/ORCA_in/CO.4.SHARKINP.tmp ... ok
----------------------
SHARK INTEGRAL PACKAGE
----------------------

Number of atoms                             ...      3
Number of basis functions                   ...     42
Number of shells                            ...     18
Maximum angular momentum                    ...      2
Integral batch strategy                     ... SHARK/LIBINT Hybrid
RI-J (if used) integral strategy            ... SPLIT-RIJ (Revised 2003 algorithm where possible)
Printlevel                                  ...      1
Contraction scheme used                     ... SEGMENTED contraction
Coulomb Range Separation                    ... NOT USED
Exchange Range Separation                   ... NOT USED
Finite Nucleus Model                        ... NOT USED
Auxiliary Coulomb fitting basis             ... AVAILABLE
   # of basis functions in Aux-J            ...    147
   # of shells in Aux-J                     ...     45
   Maximum angular momentum in Aux-J        ...      4
Auxiliary J/K fitting basis                 ... NOT available
Auxiliary Correlation fitting basis         ... NOT available
Auxiliary 'external' fitting basis          ... NOT available
Integral threshold                          ...     2.500000e-11
Primitive cut-off                           ...     2.500000e-12
Primitive pair pre-selection threshold      ...     2.500000e-12

Calculating pre-screening integrals         ... done (  0.0 sec) Dimension = 18
Organizing shell pair data                  ... done (  0.0 sec)
Shell pair information
Total number of shell pairs                 ...       171
Shell pairs after pre-screening             ...       170
Total number of primitive shell pairs       ...       705
Primitive shell pairs kept                  ...       602
          la=0 lb=0:     44 shell pairs
          la=1 lb=0:     54 shell pairs
          la=1 lb=1:     21 shell pairs
          la=2 lb=0:     27 shell pairs
          la=2 lb=1:     18 shell pairs
          la=2 lb=2:      6 shell pairs

Calculating one electron integrals          ... done (  0.0 sec)
Calculating RI/J V-Matrix + Cholesky decomp.... done (  0.0 sec)
Calculating Nuclear repulsion               ... done (  0.0 sec) ENN=     53.291869417091 Eh

SHARK setup successfully completed in   0.1 seconds

Maximum memory used throughout the entire GTOINT-calculation: 8.9 MB
-------------------------------------------------------------------------------
                                 ORCA SCF
-------------------------------------------------------------------------------

------------
SCF SETTINGS
------------
Hamiltonian:
 Density Functional     Method          .... DFT(GTOs)
 Exchange Functional    Exchange        .... B88
   X-Alpha parameter    XAlpha          ....  0.666667
   Becke's b parameter  XBeta           ....  0.004200
 Correlation Functional Correlation     .... LYP
 Gradients option       PostSCFGGA      .... off
 Hybrid DFT is turned on
   Fraction HF Exchange ScalHFX         ....  0.500000
   Scaling of DF-GGA-X  ScalDFX         ....  0.500000
   Scaling of DF-GGA-C  ScalDFC         ....  1.000000
   Scaling of DF-LDA-C  ScalLDAC        ....  1.000000
   Perturbative correction              ....  0.000000
   Density functional embedding theory  .... OFF
 RI-approximation to the Coulomb term is turned on
   Number of AuxJ basis functions       .... 147
   RIJ-COSX (HFX calculated with COS-X)).... on


General Settings:
 Integral files         IntName         .... ../../mol/ORCA_in/CO.4
 Hartree-Fock type      HFTyp           .... RHF
 Total Charge           Charge          ....    0
 Multiplicity           Mult            ....    1
 Number of Electrons    NEL             ....   22
 Basis Dimension        Dim             ....   42
 Nuclear Repulsion      ENuc            ....     53.2918694171 Eh

Convergence Acceleration:
 DIIS                   CNVDIIS         .... on
   Start iteration      DIISMaxIt       ....    12
   Startup error        DIISStart       ....  0.200000
   # of expansion vecs  DIISMaxEq       ....     5
   Bias factor          DIISBfac        ....   1.050
   Max. coefficient     DIISMaxC        ....  10.000
 Trust-Rad. Augm. Hess. CNVTRAH         .... auto
   Auto Start mean grad. ratio tolernc. ....  1.125000
   Auto Start start iteration           ....     1
   Auto Start num. interpolation iter.  ....    10
   Max. Number of Micro iterations      ....    16
   Max. Number of Macro iterations      .... Maxiter - #DIIS iter
   Number of Davidson start vectors     ....     2
   Converg. threshold I  (grad. norm)   ....   1.000e-05
   Converg. threshold II (energy diff.) ....   1.000e-08
   Grad. Scal. Fac. for Micro threshold ....   0.100
   Minimum threshold for Micro iter.    ....   0.010
   NR start threshold (gradient norm)   ....   0.001
   Initial trust radius                 ....   0.400
   Minimum AH scaling param. (alpha)    ....   1.000
   Maximum AH scaling param. (alpha)    .... 1000.000
   Orbital update algorithm             .... Taylor
   White noise on init. David. guess    .... on
   Maximum white noise                  ....   0.010
   Quad. conv. algorithm                .... NR
 SOSCF                  CNVSOSCF        .... on
   Start iteration      SOSCFMaxIt      ....   150
   Startup grad/error   SOSCFStart      ....  0.003300
 Level Shifting         CNVShift        .... on
   Level shift para.    LevelShift      ....    0.2500
   Turn off err/grad.   ShiftErr        ....    0.0010
 Zerner damping         CNVZerner       .... off
 Static damping         CNVDamp         .... on
   Fraction old density DampFac         ....    0.7000
   Max. Damping (<1)    DampMax         ....    0.9800
   Min. Damping (>=0)   DampMin         ....    0.0000
   Turn off err/grad.   DampErr         ....    0.1000
 Fernandez-Rico         CNVRico         .... off

SCF Procedure:
 Maximum # iterations   MaxIter         ....   125
 SCF integral mode      SCFMode         .... Direct
   Integral package                     .... SHARK and LIBINT hybrid scheme
 Reset frequency        DirectResetFreq ....    20
 Integral Threshold     Thresh          ....  2.500e-11 Eh
 Primitive CutOff       TCut            ....  2.500e-12 Eh

Convergence Tolerance:
 Convergence Check Mode ConvCheckMode   .... Total+1el-Energy
 Convergence forced     ConvForced      .... 1
 Energy Change          TolE            ....  1.000e-08 Eh
 1-El. energy change                    ....  1.000e-05 Eh
 Orbital Gradient       TolG            ....  1.000e-05
 Orbital Rotation angle TolX            ....  1.000e-05
 DIIS Error             TolErr          ....  5.000e-07


Diagonalization of the overlap matrix:
Smallest eigenvalue                        ... 9.855e-03
Time for diagonalization                   ...    0.000 sec
Threshold for overlap eigenvalues          ... 1.000e-08
Number of eigenvalues below threshold      ... 0
Time for construction of square roots      ...    0.000 sec
Total time needed                          ...    0.000 sec

---------------------
INITIAL GUESS: MOREAD
---------------------
Guess MOs are being read from file: ../../mol/ORCA_in/CO.4.ges
Input Geometry matches current geometry (good)
Input basis set matches current basis set (good)
MOs were renormalized
MOs were reorthogonalized (Cholesky)
                      ------------------
                      INITIAL GUESS DONE (   0.0 sec)
                      ------------------
-------------------
DFT GRID GENERATION
-------------------

General Integration Accuracy     IntAcc      ... 4.388
Radial Grid Type                 RadialGrid  ... OptM3 with GC (2021)
Angular Grid (max. ang.)         AngularGrid ... 4 (Lebedev-302)
Angular grid pruning method      GridPruning ... 4 (adaptive)
Weight generation scheme         WeightScheme... Becke
Basis function cutoff            BFCut       ... 1.0000e-11
Integration weight cutoff        WCut        ... 1.0000e-14
Angular grids for H and He will be reduced by one unit
Partially contracted basis set               ... off
Rotationally invariant grid construction     ... off

Total number of grid points                  ...    18363
Total number of batches                      ...      289
Average number of points per batch           ...       63
Average number of grid points per atom       ...     6121
Time for grid setup =    0.114 sec

--------------------
COSX GRID GENERATION
--------------------

GRIDX 1
-------
General Integration Accuracy     IntAcc      ... 3.816
Radial Grid Type                 RadialGrid  ... OptM3 with GC (2021)
Angular Grid (max. ang.)         AngularGrid ... 1 (Lebedev-50)
Angular grid pruning method      GridPruning ... 4 (adaptive)
Weight generation scheme         WeightScheme... Becke
Basis function cutoff            BFCut       ... 1.0000e-11
Integration weight cutoff        WCut        ... 1.0000e-14
Angular grids for H and He will be reduced by one unit
Partially contracted basis set               ... on
Rotationally invariant grid construction     ... off

Total number of grid points                  ...     2294
Total number of batches                      ...       37
Average number of points per batch           ...       62
Average number of grid points per atom       ...      765
UseSFitting                                  ... on

GRIDX 2
-------
General Integration Accuracy     IntAcc      ... 4.020
Radial Grid Type                 RadialGrid  ... OptM3 with GC (2021)
Angular Grid (max. ang.)         AngularGrid ... 2 (Lebedev-110)
Angular grid pruning method      GridPruning ... 4 (adaptive)
Weight generation scheme         WeightScheme... Becke
Basis function cutoff            BFCut       ... 1.0000e-11
Integration weight cutoff        WCut        ... 1.0000e-14
Angular grids for H and He will be reduced by one unit
Partially contracted basis set               ... on
Rotationally invariant grid construction     ... off

Total number of grid points                  ...     5634
Total number of batches                      ...       89
Average number of points per batch           ...       63
Average number of grid points per atom       ...     1878
UseSFitting                                  ... on

GRIDX 3
-------
General Integration Accuracy     IntAcc      ... 4.338
Radial Grid Type                 RadialGrid  ... OptM3 with GC (2021)
Angular Grid (max. ang.)         AngularGrid ... 3 (Lebedev-194)
Angular grid pruning method      GridPruning ... 4 (adaptive)
Weight generation scheme         WeightScheme... Becke
Basis function cutoff            BFCut       ... 1.0000e-11
Integration weight cutoff        WCut        ... 1.0000e-14
Angular grids for H and He will be reduced by one unit
Partially contracted basis set               ... on
Rotationally invariant grid construction     ... off

Total number of grid points                  ...    12575
Total number of batches                      ...      198
Average number of points per batch           ...       63
Average number of grid points per atom       ...     4192
UseSFitting                                  ... on

Time for X-Grid setup             =    0.110 sec


--------------------
CPCM SOLVATION MODEL
--------------------
CPCM parameters:
  Epsilon                                         ...     INFINITY
  Refrac                                          ...       1.0000
  Rsolv                                           ...       1.3000
  Surface type                                    ... GAUSSIAN VDW
  Epsilon function type                           ...         CPCM
Radii:
 Radius for C  used is    3.8550 Bohr (=   2.0400 Ang.)
 Radius for O  used is    3.4469 Bohr (=   1.8240 Ang.)
Calculating surface                               ...        done! (  0.0s)
GEPOL surface points                              ...          254
GEPOL Volume                                      ...     373.4094
GEPOL Surface-area                                ...     264.2091
Calculating surface distance matrix               ...        done! (  0.0s)
Performing Cholesky decomposition & store         ...        done! (  0.0s)
Overall time for CPCM initialization              ...                 0.0s
--------------
SCF ITERATIONS
--------------
ITER       Energy         Delta-E        Max-DP      RMS-DP      [F,P]     Damp
               ***  Starting incremental Fock matrix formation  ***
                      *** Initiating the SOSCF procedure ***
                      *** Re-Reading the Fockian *** 
                      *** Removing any level shift *** 
ITER      Energy       Delta-E        Grad      Rot      Max-DP    RMS-DP
  0   -188.27109202 -188.2710920181  0.000000  0.000000  0.000000  0.000000
               *** Restarting incremental Fock matrix formation ***
                 **** Energy Check signals convergence ****
              ***Rediagonalizing the Fockian in SOSCF/NRSCF***

               *****************************************************
               *                     SUCCESS                       *
               *           SCF CONVERGED AFTER   1 CYCLES          *
               *****************************************************

Old exchange energy                            =    -10.691345212 Eh
New exchange energy                            =    -10.691346588 Eh
Exchange energy change after final integration =     -0.000001376 Eh
Total energy after final integration           =   -188.271093394 Eh
Final COS-X integration done in                =     0.241 sec

----------------
TOTAL SCF ENERGY
----------------

Total Energy       :         -188.27109339 Eh           -5123.11691 eV

Components:
Nuclear Repulsion  :           53.29186942 Eh            1450.14549 eV
Electronic Energy  :         -241.56296281 Eh           -6573.26240 eV
One Electron Energy:         -362.43194934 Eh           -9862.27473 eV
Two Electron Energy:          120.86898652 Eh            3289.01233 eV
Max COSX asymmetry :            0.00000171 Eh               0.00005 eV
CPCM Dielectric    :           -0.00595306 Eh              -0.16199 eV

Virial components:
Potential Energy   :         -374.70440596 Eh          -10196.22525 eV
Kinetic Energy     :          186.43331256 Eh            5073.10835 eV
Virial Ratio       :            2.00985758


DFT components:
N(Alpha)           :       10.999998105174 electrons
N(Beta)            :       10.999998105174 electrons
N(Total)           :       21.999996210347 electrons
E(X)               :      -10.785783349992 Eh       
E(C)               :       -0.781613756585 Eh       
E(XC)              :      -11.567397106577 Eh       
DFET-embed. en.    :        0.000000000000 Eh       
CPCM Solvation Model Properties:
Surface-charge          :           -0.00238533
Charge-correction       :            0.00000696 Eh               0.00019 eV
Free-energy (cav+disp)  :  This term is not implemented in the current solvation scheme

---------------
SCF CONVERGENCE
---------------

  Last Energy change         ...   -6.0538e-12  Tolerance :   1.0000e-08
  Last MAX-Density change    ...    3.5527e-15  Tolerance :   1.0000e-07
  Last RMS-Density change    ...    1.2197e-16  Tolerance :   5.0000e-09
  Last Orbital Gradient      ...    1.3912e-07  Tolerance :   1.0000e-05
  Last Orbital Rotation      ...    3.1218e-07  Tolerance :   1.0000e-05

             **** THE GBW FILE WAS UPDATED (../../mol/ORCA_in/CO.4.gbw) ****
             **** DENSITY ../../mol/ORCA_in/CO.4.scfp WAS UPDATED ****
             **** ENERGY FILE WAS UPDATED (../../mol/ORCA_in/CO.4.en.tmp) ****
             **** THE GBW FILE WAS UPDATED (../../mol/ORCA_in/CO.4.gbw) ****
             **** DENSITY ../../mol/ORCA_in/CO.4.scfp WAS UPDATED ****
----------------
ORBITAL ENERGIES
----------------

  NO   OCC          E(Eh)            E(eV) 
   0   2.0000     -19.816130      -539.2243 
   1   2.0000     -19.760060      -537.6986 
   2   2.0000     -10.839796      -294.9659 
   3   2.0000      -1.309388       -35.6303 
   4   2.0000      -1.132032       -30.8042 
   5   2.0000      -0.677322       -18.4309 
   6   2.0000      -0.583031       -15.8651 
   7   2.0000      -0.582118       -15.8402 
   8   2.0000      -0.582118       -15.8402 
   9   2.0000      -0.419336       -11.4107 
  10   2.0000      -0.419336       -11.4107 
  11   0.0000       0.026308         0.7159 
  12   0.0000       0.026308         0.7159 
  13   0.0000       0.060645         1.6502 
  14   0.0000       0.368537        10.0284 
  15   0.0000       0.433425        11.7941 
  16   0.0000       0.493012        13.4156 
  17   0.0000       0.493012        13.4156 
  18   0.0000       0.756913        20.5966 
  19   0.0000       0.912450        24.8290 
  20   0.0000       0.989590        26.9281 
  21   0.0000       0.989590        26.9281 
  22   0.0000       1.064292        28.9609 
  23   0.0000       1.157007        31.4838 
  24   0.0000       1.157007        31.4838 
  25   0.0000       1.324409        36.0390 
  26   0.0000       1.629502        44.3410 
  27   0.0000       1.629510        44.3412 
  28   0.0000       1.634021        44.4640 
  29   0.0000       1.634021        44.4640 
  30   0.0000       1.681046        45.7436 
  31   0.0000       2.536634        69.0253 
  32   0.0000       2.685236        73.0690 
  33   0.0000       2.685345        73.0719 
  34   0.0000       2.754319        74.9488 
  35   0.0000       2.754355        74.9498 
  36   0.0000       2.801692        76.2379 
  37   0.0000       2.801692        76.2379 
  38   0.0000       3.413479        92.8855 
  39   0.0000       3.413479        92.8855 
  40   0.0000       3.444279        93.7236 
  41   0.0000       3.906009       106.2879 

                    ********************************
                    * MULLIKEN POPULATION ANALYSIS *
                    ********************************

-----------------------
MULLIKEN ATOMIC CHARGES
-----------------------
   0 C :    0.509270
   1 O :   -0.410710
   2 O :   -0.098560
Sum of atomic charges:    0.0000000

--------------------------------
MULLIKEN REDUCED ORBITAL CHARGES
--------------------------------
  0 C s       :     3.075561  s :     3.075561
      pz      :     0.867163  p :     2.298572
      px      :     0.715705
      py      :     0.715705
      dz2     :     0.028607  d :     0.116597
      dxz     :     0.043995
      dyz     :     0.043995
      dx2y2   :     0.000000
      dxy     :     0.000000
  1 O s       :     3.883168  s :     3.883168
      pz      :     1.094605  p :     4.515216
      px      :     1.710306
      py      :     1.710306
      dz2     :     0.006530  d :     0.012326
      dxz     :     0.002898
      dyz     :     0.002898
      dx2y2   :     0.000000
      dxy     :     0.000000
  2 O s       :     3.736387  s :     3.736387
      pz      :     1.297929  p :     4.337358
      px      :     1.519714
      py      :     1.519714
      dz2     :     0.010051  d :     0.024815
      dxz     :     0.007382
      dyz     :     0.007382
      dx2y2   :     0.000000
      dxy     :     0.000000


                     *******************************
                     * LOEWDIN POPULATION ANALYSIS *
                     *******************************

----------------------
LOEWDIN ATOMIC CHARGES
----------------------
   0 C :    0.344718
   1 O :   -0.327581
   2 O :   -0.017137

-------------------------------
LOEWDIN REDUCED ORBITAL CHARGES
-------------------------------
  0 C s       :     2.912312  s :     2.912312
      pz      :     1.054375  p :     2.517609
      px      :     0.731617
      py      :     0.731617
      dz2     :     0.067947  d :     0.225362
      dxz     :     0.078707
      dyz     :     0.078707
      dx2y2   :     0.000000
      dxy     :     0.000000
  1 O s       :     3.703341  s :     3.703341
      pz      :     1.216994  p :     4.603499
      px      :     1.693253
      py      :     1.693253
      dz2     :     0.014761  d :     0.020741
      dxz     :     0.002990
      dyz     :     0.002990
      dx2y2   :     0.000000
      dxy     :     0.000000
  2 O s       :     3.536806  s :     3.536806
      pz      :     1.471939  p :     4.442151
      px      :     1.485106
      py      :     1.485106
      dz2     :     0.021526  d :     0.038179
      dxz     :     0.008327
      dyz     :     0.008327
      dx2y2   :     0.000000
      dxy     :     0.000000


                      *****************************
                      * MAYER POPULATION ANALYSIS *
                      *****************************

  NA   - Mulliken gross atomic population
  ZA   - Total nuclear charge
  QA   - Mulliken gross atomic charge
  VA   - Mayer's total valence
  BVA  - Mayer's bonded valence
  FA   - Mayer's free valence

  ATOM       NA         ZA         QA         VA         BVA        FA
  0 C      5.4907     6.0000     0.5093     4.0636     4.0636    -0.0000
  1 O      8.4107     8.0000    -0.4107     1.9903     1.9903     0.0000
  2 O      8.0986     8.0000    -0.0986     2.4455     2.4455    -0.0000

  Mayer bond orders larger than 0.100000
B(  0-C ,  1-O ) :   1.8042 B(  0-C ,  2-O ) :   2.2594 B(  1-O ,  2-O ) :   0.1861 


-------
TIMINGS
-------

Total SCF time: 0 days 0 hours 0 min 1 sec 

Total time                  ....       1.174 sec
Sum of individual times     ....       1.127 sec  ( 96.0%)

Fock matrix formation       ....       0.901 sec  ( 76.7%)
  Split-RI-J                ....       0.124 sec  ( 13.8% of F)
  Chain of spheres X        ....       0.536 sec  ( 59.5% of F)
  XC integration            ....       0.128 sec  ( 14.2% of F)
    Basis function eval.    ....       0.054 sec  ( 42.2% of XC)
    Density eval.           ....       0.024 sec  ( 18.6% of XC)
    XC-Functional eval.     ....       0.027 sec  ( 21.3% of XC)
    XC-Potential eval.      ....       0.015 sec  ( 11.6% of XC)
Diagonalization             ....       0.000 sec  (  0.0%)
Density matrix formation    ....       0.000 sec  (  0.0%)
Population analysis         ....       0.001 sec  (  0.1%)
Initial guess               ....       0.001 sec  (  0.1%)
Orbital Transformation      ....       0.000 sec  (  0.0%)
Orbital Orthonormalization  ....       0.000 sec  (  0.0%)
DIIS solution               ....       0.000 sec  (  0.0%)
SOSCF solution              ....       0.000 sec  (  0.0%)
Grid generation             ....       0.223 sec  ( 19.0%)

Maximum memory used throughout the entire SCF-calculation: 45.5 MB
------------------------------------------------------------------------------
                        ORCA TD-DFT/TDA CALCULATION
------------------------------------------------------------------------------

Input orbitals are from        ... ../../mol/ORCA_in/CO.4.gbw
CI-vector output               ... ../../mol/ORCA_in/CO.4.cis
Tamm-Dancoff approximation     ... operative
CIS-Integral strategy          ... AO-integrals
Integral handling              ... AO integral Direct
Max. core memory used          ... 512 MB
Reference state                ... RHF
Generation of triplets         ... off
Follow IRoot                   ... off
Number of operators            ... 1
Orbital ranges used for CIS calculation:
 Operator 0:  Orbitals   3... 10  to  11... 41
XAS localization array:
 Operator 0:  Orbitals  -1... -1

-------------------
XC-INTEGRATION GRID
-------------------

General Integration Accuracy     IntAcc      ... 3.467
Radial Grid Type                 RadialGrid  ... OptM3 with GC (2021)
Angular Grid (max. ang.)         AngularGrid ... 1 (Lebedev-50)
Angular grid pruning method      GridPruning ... 4 (adaptive)
Weight generation scheme         WeightScheme... Becke
Basis function cutoff            BFCut       ... 1.0000e-11
Integration weight cutoff        WCut        ... 1.0000e-14
Angular grids for H and He will be reduced by one unit
Partially contracted basis set               ... off
Rotationally invariant grid construction     ... off

Total number of grid points                  ...     2878
Total number of batches                      ...       46
Average number of points per batch           ...       62
Average number of grid points per atom       ...      959

---------------------
COSX-INTEGRATION GRID
---------------------

General Integration Accuracy     IntAcc      ... 3.067
Radial Grid Type                 RadialGrid  ... OptM3 with GC (2021)
Angular Grid (max. ang.)         AngularGrid ... 1 (Lebedev-50)
Angular grid pruning method      GridPruning ... 4 (adaptive)
Weight generation scheme         WeightScheme... Becke
Basis function cutoff            BFCut       ... 1.0000e-11
Integration weight cutoff        WCut        ... 1.0000e-14
Angular grids for H and He will be reduced by one unit
Partially contracted basis set               ... on
Rotationally invariant grid construction     ... off

Total number of grid points                  ...     1261
Total number of batches                      ...       20
Average number of points per batch           ...       63
Average number of grid points per atom       ...      420

---------------
TD-DFT XC SETUP
---------------

DFT calculation                         ... on
Name of the grid file                   ... ../../mol/ORCA_in/CO.4.grid_cis.tmp
Exchange functional (TD-DFT)            ... B88
   X-Alpha parameter    XAlpha (TD-DFT) ...  0.666667
   Becke's b parameter  XBeta (TD-DFT)  ...  0.004200
Correlation functional (TD-DFT)         ... LYP
Hybrid DFT                              ... on
   Exchange mixing (TD-DFT)             ...  0.500
   GGA exch. scaling (TD-DFT)           ...  0.500
   GGA corr. scaling (TD-DFT)           ...  1.000

Building densities             ... done
Calculating rho(r) on the grid ... done
Building xc-kernel on the grid ... done
                    *** TD-DFT CALCULATION INITIALIZED ***

---------------------------------
    LR-CPCM (non-equilibrium)
---------------------------------

Setting up LR-CPCM             ... done

------------------------
DAVIDSON-DIAGONALIZATION
------------------------

Dimension of the eigenvalue problem            ...    248
Number of roots to be determined               ...      5
Maximum size of the expansion space            ...     50
Maximum number of iterations                   ...    100
Convergence tolerance for the residual         ...    2.500e-07
Convergence tolerance for the energies         ...    2.500e-07
Orthogonality tolerance                        ...    1.000e-14
Level Shift                                    ...    0.000e+00
Constructing the preconditioner                ... o.k.
Building the initial guess                     ... o.k.
Number of trial vectors determined             ...     50


                       ****Iteration    0****

   Memory handling for direct AO based CIS:
   Memory per vector needed      ...     1 MB
   Memory needed                 ...     1 MB
   Memory available              ...   512 MB
   Number of vectors per batch   ...   512
   Number of batches             ...     1
   Time for densities:            0.000
   Time for RI-J (Direct):        0.017
   Time for K (COSX):             0.068
   Time for XC-Integration:       0.067
   Time for LR-CPCM terms:        0.076
   Time for Sigma-Completion:     0.001
   Size of expansion space: 15
   Lowest Energy          :     0.261981385930
   Maximum Energy change  :     0.296638607224 (vector 4)
   Maximum residual norm  :     0.006643550364

                       ****Iteration    1****
   Time for densities:            0.000
   Time for RI-J (Direct):        0.017
   Time for K (COSX):             0.061
   Time for XC-Integration:       0.017
   Time for LR-CPCM terms:        0.056
   Time for Sigma-Completion:     0.000
   Size of expansion space: 20
   Lowest Energy          :     0.259444356493
   Maximum Energy change  :     0.009722160236 (vector 4)
   Maximum residual norm  :     0.000259890439

                       ****Iteration    2****
   Time for densities:            0.000
   Time for RI-J (Direct):        0.011
   Time for K (COSX):             0.048
   Time for XC-Integration:       0.023
   Time for LR-CPCM terms:        0.048
   Time for Sigma-Completion:     0.000
   Size of expansion space: 25
   Lowest Energy          :     0.259440432765
   Maximum Energy change  :     0.000167047212 (vector 4)
   Maximum residual norm  :     0.000004355664

                       ****Iteration    3****
   Time for densities:            0.000
   Time for RI-J (Direct):        0.011
   Time for K (COSX):             0.041
   Time for XC-Integration:       0.016
   Time for LR-CPCM terms:        0.047
   Time for Sigma-Completion:     0.000
   Size of expansion space: 30
   Lowest Energy          :     0.259440417632
   Maximum Energy change  :     0.000003582120 (vector 4)
   Maximum residual norm  :     0.000000050949

      *** CONVERGENCE OF RESIDUAL NORM REACHED ***

Storing the converged CI vectors               ... ../../mol/ORCA_in/CO.4.cis1

                 *** DAVIDSON DONE ***

Total time for solving the CIS problem:     0.649sec

------------------------------------
TD-DFT/TDA EXCITED STATES (SINGLETS)
------------------------------------

the weight of the individual excitations are printed if larger than 1.0e-02

STATE  1:  E=   0.259440 au      7.060 eV    56940.6 cm**-1 <S**2> =   0.000000
     9a ->  11a  :     0.497024 (c=  0.70499917)
    10a ->  12a  :     0.497026 (c= -0.70500089)

STATE  2:  E=   0.269156 au      7.324 eV    59073.0 cm**-1 <S**2> =   0.000000
     9a ->  11a  :     0.014305 (c=  0.11960526)
     9a ->  12a  :     0.483233 (c= -0.69514983)
    10a ->  11a  :     0.483234 (c=  0.69515013)
    10a ->  12a  :     0.014305 (c=  0.11960492)

STATE  3:  E=   0.269252 au      7.327 eV    59094.1 cm**-1 <S**2> =   0.000000
     9a ->  11a  :     0.483238 (c= -0.69515312)
     9a ->  12a  :     0.014305 (c= -0.11960545)
    10a ->  11a  :     0.014305 (c=  0.11960553)
    10a ->  12a  :     0.483236 (c= -0.69515143)

STATE  4:  E=   0.286746 au      7.803 eV    62933.4 cm**-1 <S**2> =   0.000000
    10a ->  13a  :     0.976551 (c= -0.98820577)
    10a ->  14a  :     0.012689 (c= -0.11264378)

STATE  5:  E=   0.286746 au      7.803 eV    62933.4 cm**-1 <S**2> =   0.000000
     9a ->  13a  :     0.976551 (c= -0.98820577)
     9a ->  14a  :     0.012689 (c= -0.11264379)


-----------------------------
TD-DFT/TDA-EXCITATION SPECTRA
-----------------------------

Center of mass = (  0.0000,  0.0000,  0.1655)
Calculating the Dipole integrals                  ... done
Transforming integrals                            ... done
Calculating the Linear Momentum integrals         ... done
Transforming integrals                            ... done
Calculating angular momentum integrals            ... done
Transforming integrals                            ... done

-----------------------------------------------------------------------------
         ABSORPTION SPECTRUM VIA TRANSITION ELECTRIC DIPOLE MOMENTS
-----------------------------------------------------------------------------
State   Energy    Wavelength  fosc         T2        TX        TY        TZ  
        (cm-1)      (nm)                 (au**2)    (au)      (au)      (au) 
-----------------------------------------------------------------------------
   1   56940.6    175.6   0.000000000   0.00000  -0.00000   0.00000  -0.00000
   2   59073.0    169.3   0.000000000   0.00000  -0.00000  -0.00000   0.00000
   3   59094.1    169.2   0.000000000   0.00000   0.00000  -0.00000   0.00000
   4   62933.4    158.9   0.006933084   0.03627  -0.12181  -0.14639   0.00000
   5   62933.4    158.9   0.006933095   0.03627  -0.14639   0.12181   0.00000

-----------------------------------------------------------------------------
         ABSORPTION SPECTRUM VIA TRANSITION VELOCITY DIPOLE MOMENTS
-----------------------------------------------------------------------------
State   Energy    Wavelength   fosc        P2         PX        PY        PZ  
        (cm-1)      (nm)                 (au**2)     (au)      (au)      (au) 
-----------------------------------------------------------------------------
   1   56940.6    175.6   0.000000000   0.00000   0.00000  -0.00000   0.00000
   2   59073.0    169.3   0.000000000   0.00000  -0.00000  -0.00000  -0.00000
   3   59094.1    169.2   0.000000000   0.00000   0.00000  -0.00000  -0.00000
   4   62933.4    158.9   0.007593441   0.00327   0.03655   0.04393  -0.00000
   5   62933.4    158.9   0.007593445   0.00327   0.04393  -0.03655  -0.00000

-------------------------------------------------------------------
                             CD SPECTRUM
-------------------------------------------------------------------
State  Energy     Wavelength     R         MX        MY        MZ   
       (cm-1)       (nm)     (1e40*cgs)   (au)      (au)      (au)  
-------------------------------------------------------------------
   1   56940.6    175.6      0.00000   0.00000   0.00000   0.00000
   2   59073.0    169.3     -0.00000   0.00000  -0.00000  -0.00000
   3   59094.1    169.2      0.00000   0.00000   0.00000   0.00000
   4   62933.4    158.9      0.00000   0.05005  -0.04165  -0.00000
   5   62933.4    158.9     -0.00000  -0.04165  -0.05005   0.00000

-------------------------------------------------------------------
         CD SPECTRUM VIA TRANSITION VELOCITY DIPOLE MOMENTS        
-------------------------------------------------------------------
State  Energy     Wavelength     R         MX        MY        MZ   
       (cm-1)       (nm)     (1e40*cgs)   (au)      (au)      (au)  
-------------------------------------------------------------------
   1   56940.6    175.6      0.00000   0.00000   0.00000   0.00000
   2   59073.0    169.3      0.00000   0.00000  -0.00000  -0.00000
   3   59094.1    169.2      0.00000   0.00000   0.00000   0.00000
   4   62933.4    158.9     -0.00000   0.05005  -0.04165  -0.00000
   5   62933.4    158.9      0.00000  -0.04165  -0.05005   0.00000

Total run time:        0.905 sec

           *** ORCA-CIS/TD-DFT FINISHED WITHOUT ERROR ***

Maximum memory used throughout the entire CIS-calculation: 43.2 MB

-----------------------
CIS/TD-DFT TOTAL ENERGY
-----------------------

    E(SCF)  =   -188.271093394 Eh
    DE(CIS) =      0.259440418 Eh (Root  1)
    ----------------------------- ---------
    E(tot)  =   -188.011652976 Eh


-------------------------   --------------------
FINAL SINGLE POINT ENERGY      -188.011652976485
-------------------------   --------------------


                            ***************************************
                            *     ORCA property calculations      *
                            ***************************************

                                    ---------------------
                                    Active property flags
                                    ---------------------
   (+) Dipole Moment


------------------------------------------------------------------------------
                       ORCA ELECTRIC PROPERTIES CALCULATION
------------------------------------------------------------------------------

Dipole Moment Calculation                       ... on
Quadrupole Moment Calculation                   ... off
Polarizability Calculation                      ... off
GBWName                                         ... ../../mol/ORCA_in/CO.4.gbw
Electron density                                ... ../../mol/ORCA_in/CO.4.scfp
The origin for moment calculation is the CENTER OF MASS  = ( 0.000000,  0.000000  0.165512)

-------------
DIPOLE MOMENT
-------------
                                X             Y             Z
Electronic contribution:      0.00000       0.00000      -0.64097
Nuclear contribution   :      0.00000       0.00000       0.00097
                        -----------------------------------------
Total Dipole Moment    :      0.00000       0.00000      -0.63999
                        -----------------------------------------
Magnitude (a.u.)       :      0.63999
Magnitude (Debye)      :      1.62673



--------------------
Rotational spectrum 
--------------------
 
Rotational constants in cm-1:     0.000000     0.321010     0.321010 
Rotational constants in MHz :     0.000000  9623.634369  9623.634369 

 Dipole components along the rotational axes: 
x,y,z [a.u.] :    -0.639993     0.000000     0.000000 
x,y,z [Debye]:    -1.626733     0.000000     0.000000 

 

Timings for individual modules:

Sum of individual times         ...        2.188 sec (=   0.036 min)
GTO integral calculation        ...        0.093 sec (=   0.002 min)   4.3 %
SCF iterations                  ...        1.182 sec (=   0.020 min)  54.0 %
CIS module                      ...        0.913 sec (=   0.015 min)  41.7 %
                             ****ORCA TERMINATED NORMALLY****
TOTAL RUN TIME: 0 days 0 hours 0 minutes 2 seconds 287 msec
