
                                 *****************
                                 * O   R   C   A *
                                 *****************

                                            #,                                       
                                            ###                                      
                                            ####                                     
                                            #####                                    
                                            ######                                   
                                           ########,                                 
                                     ,,################,,,,,                         
                               ,,#################################,,                 
                          ,,##########################################,,             
                       ,#########################################, ''#####,          
                    ,#############################################,,   '####,        
                  ,##################################################,,,,####,       
                ,###########''''           ''''###############################       
              ,#####''   ,,,,##########,,,,          '''####'''          '####       
            ,##' ,,,,###########################,,,                        '##       
           ' ,,###''''                  '''############,,,                           
         ,,##''                                '''############,,,,        ,,,,,,###''
      ,#''                                            '''#######################'''  
     '                                                          ''''####''''         
             ,#######,   #######,   ,#######,      ##                                
            ,#'     '#,  ##    ##  ,#'     '#,    #''#        ######   ,####,        
            ##       ##  ##   ,#'  ##            #'  '#       #        #'  '#        
            ##       ##  #######   ##           ,######,      #####,   #    #        
            '#,     ,#'  ##    ##  '#,     ,#' ,#      #,         ##   #,  ,#        
             '#######'   ##     ##  '#######'  #'      '#     #####' # '####'        



                  #######################################################
                  #                        -***-                        #
                  #          Department of theory and spectroscopy      #
                  #    Directorship and core code : Frank Neese         #
                  #        Max Planck Institute fuer Kohlenforschung    #
                  #                Kaiser Wilhelm Platz 1               #
                  #                 D-45470 Muelheim/Ruhr               #
                  #                      Germany                        #
                  #                                                     #
                  #                  All rights reserved                #
                  #                        -***-                        #
                  #######################################################


                         Program Version 5.0.4 -  RELEASE  -


 With contributions from (in alphabetic order):
   Daniel Aravena         : Magnetic Suceptibility
   Michael Atanasov       : Ab Initio Ligand Field Theory (pilot matlab implementation)
   Alexander A. Auer      : GIAO ZORA, VPT2 properties, NMR spectrum
   Ute Becker             : Parallelization
   Giovanni Bistoni       : ED, misc. LED, open-shell LED, HFLD
   Martin Brehm           : Molecular dynamics
   Dmytro Bykov           : SCF Hessian
   Vijay G. Chilkuri      : MRCI spin determinant printing, contributions to CSF-ICE
   Dipayan Datta          : RHF DLPNO-CCSD density
   Achintya Kumar Dutta   : EOM-CC, STEOM-CC
   Dmitry Ganyushin       : Spin-Orbit,Spin-Spin,Magnetic field MRCI
   Miquel Garcia          : C-PCM and meta-GGA Hessian, CC/C-PCM, Gaussian charge scheme
   Yang Guo               : DLPNO-NEVPT2, F12-NEVPT2, CIM, IAO-localization
   Andreas Hansen         : Spin unrestricted coupled pair/coupled cluster methods
   Benjamin Helmich-Paris : MC-RPA, TRAH-SCF, COSX integrals
   Lee Huntington         : MR-EOM, pCC
   Robert Izsak           : Overlap fitted RIJCOSX, COSX-SCS-MP3, EOM
   Marcus Kettner         : VPT2
   Christian Kollmar      : KDIIS, OOCD, Brueckner-CCSD(T), CCSD density, CASPT2, CASPT2-K
   Simone Kossmann        : Meta GGA functionals, TD-DFT gradient, OOMP2, MP2 Hessian
   Martin Krupicka        : Initial AUTO-CI
   Lucas Lang             : DCDCAS
   Marvin Lechner         : AUTO-CI (C++ implementation), FIC-MRCC
   Dagmar Lenk            : GEPOL surface, SMD
   Dimitrios Liakos       : Extrapolation schemes; Compound Job, initial MDCI parallelization
   Dimitrios Manganas     : Further ROCIS development; embedding schemes
   Dimitrios Pantazis     : SARC Basis sets
   Anastasios Papadopoulos: AUTO-CI, single reference methods and gradients
   Taras Petrenko         : DFT Hessian,TD-DFT gradient, ASA, ECA, R-Raman, ABS, FL, XAS/XES, NRVS
   Peter Pinski           : DLPNO-MP2, DLPNO-MP2 Gradient
   Christoph Reimann      : Effective Core Potentials
   Marius Retegan         : Local ZFS, SOC
   Christoph Riplinger    : Optimizer, TS searches, QM/MM, DLPNO-CCSD(T), (RO)-DLPNO pert. Triples
   Tobias Risthaus        : Range-separated hybrids, TD-DFT gradient, RPA, STAB
   Michael Roemelt        : Original ROCIS implementation
   Masaaki Saitow         : Open-shell DLPNO-CCSD energy and density
   Barbara Sandhoefer     : DKH picture change effects
   Avijit Sen             : IP-ROCIS
   Kantharuban Sivalingam : CASSCF convergence, NEVPT2, FIC-MRCI
   Bernardo de Souza      : ESD, SOC TD-DFT
   Georgi Stoychev        : AutoAux, RI-MP2 NMR, DLPNO-MP2 response
   Willem Van den Heuvel  : Paramagnetic NMR
   Boris Wezisla          : Elementary symmetry handling
   Frank Wennmohs         : Technical directorship


 We gratefully acknowledge several colleagues who have allowed us to
 interface, adapt or use parts of their codes:
   Stefan Grimme, W. Hujo, H. Kruse, P. Pracht,  : VdW corrections, initial TS optimization,
                  C. Bannwarth, S. Ehlert          DFT functionals, gCP, sTDA/sTD-DF
   Ed Valeev, F. Pavosevic, A. Kumar             : LibInt (2-el integral package), F12 methods
   Garnet Chan, S. Sharma, J. Yang, R. Olivares  : DMRG
   Ulf Ekstrom                                   : XCFun DFT Library
   Mihaly Kallay                                 : mrcc  (arbitrary order and MRCC methods)
   Jiri Pittner, Ondrej Demel                    : Mk-CCSD
   Frank Weinhold                                : gennbo (NPA and NBO analysis)
   Christopher J. Cramer and Donald G. Truhlar   : smd solvation model
   Lars Goerigk                                  : TD-DFT with DH, B97 family of functionals
   V. Asgeirsson, H. Jonsson                     : NEB implementation
   FAccTs GmbH                                   : IRC, NEB, NEB-TS, DLPNO-Multilevel, CI-OPT
                                                   MM, QMMM, 2- and 3-layer-ONIOM, Crystal-QMMM,
                                                   LR-CPCM, SF, NACMEs, symmetry and pop. for TD-DFT,
                                                   nearIR, NL-DFT gradient (VV10), updates on ESD,
                                                   ML-optimized integration grids
   S Lehtola, MJT Oliveira, MAL Marques          : LibXC Library
   Liviu Ungur et al                             : ANISO software


 Your calculation uses the libint2 library for the computation of 2-el integrals
 For citations please refer to: http://libint.valeyev.net

 Your ORCA version has been built with support for libXC version: 5.1.0
 For citations please refer to: https://tddft.org/programs/libxc/

 This ORCA versions uses:
   CBLAS   interface :  Fast vector & matrix operations
   LAPACKE interface :  Fast linear algebra routines
   SCALAPACK package :  Parallel linear algebra routines
   Shared memory     :  Shared parallel matrices
   BLAS/LAPACK       :  OpenBLAS 0.3.15  USE64BITINT DYNAMIC_ARCH NO_AFFINITY Zen SINGLE_THREADED
        Core in use  :  Zen
   Copyright (c) 2011-2014, The OpenBLAS Project


================================================================================

----- Orbital basis set information -----
Your calculation utilizes the basis: def2-SVP
   F. Weigend and R. Ahlrichs, Phys. Chem. Chem. Phys. 7, 3297 (2005).

----- AuxJ basis set information -----
Your calculation utilizes the auxiliary basis: def2/J
   F. Weigend, Phys. Chem. Chem. Phys. 8, 1057 (2006).

================================================================================
                                        WARNINGS
                       Please study these warnings very carefully!
================================================================================

WARNING: Old DensityContainer found on disk!
         Will remove this file - 
         If you want to keep old densities, please start your calculation with a different basename. 

INFO   : Checking CIS options ...

WARNING: CIS/ROCIS methods need fully converged wavefunctions
  ===> : Setting SCFConvForced true
         You can overwrite this default with %scf ConvForced false 


INFO   : the flag for use of the SHARK integral package has been found!

================================================================================
                                       INPUT FILE
================================================================================
NAME = ../../mol/ORCA_in/CO.5.com
|  1> ! BHANDHLYP def2-SVP TightSCF
|  2> 
|  3> %CPCM
|  4> end
|  5> 
|  6> %tddft
|  7> NRoots 5
|  8> IRoot 1
|  9> end
| 10> 
| 11> #  4 
| 12> * xyz 0 1
| 13>  C 0.000000    0.000000    0.000000
| 14>  O 0.000000    0.000000    1.500000
| 15>  O 0.000000    0.000000   -1.159076
| 16> *
| 17> 
| 18>                          ****END OF INPUT****
================================================================================

                       ****************************
                       * Single Point Calculation *
                       ****************************

---------------------------------
CARTESIAN COORDINATES (ANGSTROEM)
---------------------------------
  C      0.000000    0.000000    0.000000
  O      0.000000    0.000000    1.500000
  O      0.000000    0.000000   -1.159076

----------------------------
CARTESIAN COORDINATES (A.U.)
----------------------------
  NO LB      ZA    FRAG     MASS         X           Y           Z
   0 C     6.0000    0    12.011    0.000000    0.000000    0.000000
   1 O     8.0000    0    15.999    0.000000    0.000000    2.834589
   2 O     8.0000    0    15.999    0.000000    0.000000   -2.190336

--------------------------------
INTERNAL COORDINATES (ANGSTROEM)
--------------------------------
 C      0   0   0     0.000000000000     0.00000000     0.00000000
 O      1   0   0     1.500000000000     0.00000000     0.00000000
 O      1   2   0     1.159076000000   179.99999879     0.00000000

---------------------------
INTERNAL COORDINATES (A.U.)
---------------------------
 C      0   0   0     0.000000000000     0.00000000     0.00000000
 O      1   0   0     2.834589200882     0.00000000     0.00000000
 O      1   2   0     2.190336208401   179.99999879     0.00000000

---------------------
BASIS SET INFORMATION
---------------------
There are 2 groups of distinct atoms

 Group   1 Type C   : 7s4p1d contracted to 3s2p1d pattern {511/31/1}
 Group   2 Type O   : 7s4p1d contracted to 3s2p1d pattern {511/31/1}

Atom   0C    basis set group =>   1
Atom   1O    basis set group =>   2
Atom   2O    basis set group =>   2
---------------------------------
AUXILIARY/J BASIS SET INFORMATION
---------------------------------
There are 2 groups of distinct atoms

 Group   1 Type C   : 12s5p4d2f1g contracted to 6s4p3d1f1g pattern {711111/2111/211/2/1}
 Group   2 Type O   : 12s5p4d2f1g contracted to 6s4p3d1f1g pattern {711111/2111/211/2/1}

Atom   0C    basis set group =>   1
Atom   1O    basis set group =>   2
Atom   2O    basis set group =>   2

Checking for AutoStart:
The File: ../../mol/ORCA_in/CO.5.gbw exists
Trying to determine its content:
     ... Fine, the file contains calculation information
     ... Fine, the calculation information was read
     ... Fine, the file contains a basis set
     ... Fine, the basis set was read
     ... Fine, the file contains a geometry
     ... Fine, the geometry was read
     ... Fine, the file contains a set of orbitals
     ... Fine, the orbitals can be read
     => possible old guess file was deleted
     => GBW file was renamed to GES file
     => GES file is set as startup file
     => Guess is set to MORead
     ... now leaving AutoStart

------------------------------------------------------------------------------
                           ORCA GTO INTEGRAL CALCULATION
                           -- RI-GTO INTEGRALS CHOSEN --
------------------------------------------------------------------------------
------------------------------------------------------------------------------
                   ___                                                        
                  /   \      - P O W E R E D   B Y -                         
                 /     \                                                     
                 |  |  |   _    _      __       _____    __    __             
                 |  |  |  | |  | |    /  \     |  _  \  |  |  /  |          
                  \  \/   | |  | |   /    \    | | | |  |  | /  /          
                 / \  \   | |__| |  /  /\  \   | |_| |  |  |/  /          
                |  |  |   |  __  | /  /__\  \  |    /   |      \           
                |  |  |   | |  | | |   __   |  |    \   |  |\   \          
                \     /   | |  | | |  |  |  |  | |\  \  |  | \   \       
                 \___/    |_|  |_| |__|  |__|  |_| \__\ |__|  \__/        
                                                                              
                      - O R C A' S   B I G   F R I E N D -                    
                                      &                                       
                       - I N T E G R A L  F E E D E R -                       
                                                                              
 v1 FN, 2020, v2 2021                                                         
------------------------------------------------------------------------------


Reading SHARK input file ../../mol/ORCA_in/CO.5.SHARKINP.tmp ... ok
----------------------
SHARK INTEGRAL PACKAGE
----------------------

Number of atoms                             ...      3
Number of basis functions                   ...     42
Number of shells                            ...     18
Maximum angular momentum                    ...      2
Integral batch strategy                     ... SHARK/LIBINT Hybrid
RI-J (if used) integral strategy            ... SPLIT-RIJ (Revised 2003 algorithm where possible)
Printlevel                                  ...      1
Contraction scheme used                     ... SEGMENTED contraction
Coulomb Range Separation                    ... NOT USED
Exchange Range Separation                   ... NOT USED
Finite Nucleus Model                        ... NOT USED
Auxiliary Coulomb fitting basis             ... AVAILABLE
   # of basis functions in Aux-J            ...    147
   # of shells in Aux-J                     ...     45
   Maximum angular momentum in Aux-J        ...      4
Auxiliary J/K fitting basis                 ... NOT available
Auxiliary Correlation fitting basis         ... NOT available
Auxiliary 'external' fitting basis          ... NOT available
Integral threshold                          ...     2.500000e-11
Primitive cut-off                           ...     2.500000e-12
Primitive pair pre-selection threshold      ...     2.500000e-12

Calculating pre-screening integrals         ... done (  0.0 sec) Dimension = 18
Organizing shell pair data                  ... done (  0.0 sec)
Shell pair information
Total number of shell pairs                 ...       171
Shell pairs after pre-screening             ...       170
Total number of primitive shell pairs       ...       705
Primitive shell pairs kept                  ...       599
          la=0 lb=0:     44 shell pairs
          la=1 lb=0:     54 shell pairs
          la=1 lb=1:     21 shell pairs
          la=2 lb=0:     27 shell pairs
          la=2 lb=1:     18 shell pairs
          la=2 lb=2:      6 shell pairs

Calculating one electron integrals          ... done (  0.0 sec)
Calculating RI/J V-Matrix + Cholesky decomp.... done (  0.0 sec)
Calculating Nuclear repulsion               ... done (  0.0 sec) ENN=     51.584622051048 Eh

SHARK setup successfully completed in   0.1 seconds

Maximum memory used throughout the entire GTOINT-calculation: 8.9 MB
-------------------------------------------------------------------------------
                                 ORCA SCF
-------------------------------------------------------------------------------

------------
SCF SETTINGS
------------
Hamiltonian:
 Density Functional     Method          .... DFT(GTOs)
 Exchange Functional    Exchange        .... B88
   X-Alpha parameter    XAlpha          ....  0.666667
   Becke's b parameter  XBeta           ....  0.004200
 Correlation Functional Correlation     .... LYP
 Gradients option       PostSCFGGA      .... off
 Hybrid DFT is turned on
   Fraction HF Exchange ScalHFX         ....  0.500000
   Scaling of DF-GGA-X  ScalDFX         ....  0.500000
   Scaling of DF-GGA-C  ScalDFC         ....  1.000000
   Scaling of DF-LDA-C  ScalLDAC        ....  1.000000
   Perturbative correction              ....  0.000000
   Density functional embedding theory  .... OFF
 RI-approximation to the Coulomb term is turned on
   Number of AuxJ basis functions       .... 147
   RIJ-COSX (HFX calculated with COS-X)).... on


General Settings:
 Integral files         IntName         .... ../../mol/ORCA_in/CO.5
 Hartree-Fock type      HFTyp           .... RHF
 Total Charge           Charge          ....    0
 Multiplicity           Mult            ....    1
 Number of Electrons    NEL             ....   22
 Basis Dimension        Dim             ....   42
 Nuclear Repulsion      ENuc            ....     51.5846220510 Eh

Convergence Acceleration:
 DIIS                   CNVDIIS         .... on
   Start iteration      DIISMaxIt       ....    12
   Startup error        DIISStart       ....  0.200000
   # of expansion vecs  DIISMaxEq       ....     5
   Bias factor          DIISBfac        ....   1.050
   Max. coefficient     DIISMaxC        ....  10.000
 Trust-Rad. Augm. Hess. CNVTRAH         .... auto
   Auto Start mean grad. ratio tolernc. ....  1.125000
   Auto Start start iteration           ....     1
   Auto Start num. interpolation iter.  ....    10
   Max. Number of Micro iterations      ....    16
   Max. Number of Macro iterations      .... Maxiter - #DIIS iter
   Number of Davidson start vectors     ....     2
   Converg. threshold I  (grad. norm)   ....   1.000e-05
   Converg. threshold II (energy diff.) ....   1.000e-08
   Grad. Scal. Fac. for Micro threshold ....   0.100
   Minimum threshold for Micro iter.    ....   0.010
   NR start threshold (gradient norm)   ....   0.001
   Initial trust radius                 ....   0.400
   Minimum AH scaling param. (alpha)    ....   1.000
   Maximum AH scaling param. (alpha)    .... 1000.000
   Orbital update algorithm             .... Taylor
   White noise on init. David. guess    .... on
   Maximum white noise                  ....   0.010
   Quad. conv. algorithm                .... NR
 SOSCF                  CNVSOSCF        .... on
   Start iteration      SOSCFMaxIt      ....   150
   Startup grad/error   SOSCFStart      ....  0.003300
 Level Shifting         CNVShift        .... on
   Level shift para.    LevelShift      ....    0.2500
   Turn off err/grad.   ShiftErr        ....    0.0010
 Zerner damping         CNVZerner       .... off
 Static damping         CNVDamp         .... on
   Fraction old density DampFac         ....    0.7000
   Max. Damping (<1)    DampMax         ....    0.9800
   Min. Damping (>=0)   DampMin         ....    0.0000
   Turn off err/grad.   DampErr         ....    0.1000
 Fernandez-Rico         CNVRico         .... off

SCF Procedure:
 Maximum # iterations   MaxIter         ....   125
 SCF integral mode      SCFMode         .... Direct
   Integral package                     .... SHARK and LIBINT hybrid scheme
 Reset frequency        DirectResetFreq ....    20
 Integral Threshold     Thresh          ....  2.500e-11 Eh
 Primitive CutOff       TCut            ....  2.500e-12 Eh

Convergence Tolerance:
 Convergence Check Mode ConvCheckMode   .... Total+1el-Energy
 Convergence forced     ConvForced      .... 1
 Energy Change          TolE            ....  1.000e-08 Eh
 1-El. energy change                    ....  1.000e-05 Eh
 Orbital Gradient       TolG            ....  1.000e-05
 Orbital Rotation angle TolX            ....  1.000e-05
 DIIS Error             TolErr          ....  5.000e-07


Diagonalization of the overlap matrix:
Smallest eigenvalue                        ... 1.026e-02
Time for diagonalization                   ...    0.000 sec
Threshold for overlap eigenvalues          ... 1.000e-08
Number of eigenvalues below threshold      ... 0
Time for construction of square roots      ...    0.000 sec
Total time needed                          ...    0.000 sec

---------------------
INITIAL GUESS: MOREAD
---------------------
Guess MOs are being read from file: ../../mol/ORCA_in/CO.5.ges
Input Geometry matches current geometry (good)
Input basis set matches current basis set (good)
MOs were renormalized
MOs were reorthogonalized (Cholesky)
                      ------------------
                      INITIAL GUESS DONE (   0.0 sec)
                      ------------------
-------------------
DFT GRID GENERATION
-------------------

General Integration Accuracy     IntAcc      ... 4.388
Radial Grid Type                 RadialGrid  ... OptM3 with GC (2021)
Angular Grid (max. ang.)         AngularGrid ... 4 (Lebedev-302)
Angular grid pruning method      GridPruning ... 4 (adaptive)
Weight generation scheme         WeightScheme... Becke
Basis function cutoff            BFCut       ... 1.0000e-11
Integration weight cutoff        WCut        ... 1.0000e-14
Angular grids for H and He will be reduced by one unit
Partially contracted basis set               ... off
Rotationally invariant grid construction     ... off

Total number of grid points                  ...    18364
Total number of batches                      ...      289
Average number of points per batch           ...       63
Average number of grid points per atom       ...     6121
Time for grid setup =    0.093 sec

--------------------
COSX GRID GENERATION
--------------------

GRIDX 1
-------
General Integration Accuracy     IntAcc      ... 3.816
Radial Grid Type                 RadialGrid  ... OptM3 with GC (2021)
Angular Grid (max. ang.)         AngularGrid ... 1 (Lebedev-50)
Angular grid pruning method      GridPruning ... 4 (adaptive)
Weight generation scheme         WeightScheme... Becke
Basis function cutoff            BFCut       ... 1.0000e-11
Integration weight cutoff        WCut        ... 1.0000e-14
Angular grids for H and He will be reduced by one unit
Partially contracted basis set               ... on
Rotationally invariant grid construction     ... off

Total number of grid points                  ...     2295
Total number of batches                      ...       37
Average number of points per batch           ...       62
Average number of grid points per atom       ...      765
UseSFitting                                  ... on

GRIDX 2
-------
General Integration Accuracy     IntAcc      ... 4.020
Radial Grid Type                 RadialGrid  ... OptM3 with GC (2021)
Angular Grid (max. ang.)         AngularGrid ... 2 (Lebedev-110)
Angular grid pruning method      GridPruning ... 4 (adaptive)
Weight generation scheme         WeightScheme... Becke
Basis function cutoff            BFCut       ... 1.0000e-11
Integration weight cutoff        WCut        ... 1.0000e-14
Angular grids for H and He will be reduced by one unit
Partially contracted basis set               ... on
Rotationally invariant grid construction     ... off

Total number of grid points                  ...     5634
Total number of batches                      ...       89
Average number of points per batch           ...       63
Average number of grid points per atom       ...     1878
UseSFitting                                  ... on

GRIDX 3
-------
General Integration Accuracy     IntAcc      ... 4.338
Radial Grid Type                 RadialGrid  ... OptM3 with GC (2021)
Angular Grid (max. ang.)         AngularGrid ... 3 (Lebedev-194)
Angular grid pruning method      GridPruning ... 4 (adaptive)
Weight generation scheme         WeightScheme... Becke
Basis function cutoff            BFCut       ... 1.0000e-11
Integration weight cutoff        WCut        ... 1.0000e-14
Angular grids for H and He will be reduced by one unit
Partially contracted basis set               ... on
Rotationally invariant grid construction     ... off

Total number of grid points                  ...    12581
Total number of batches                      ...      197
Average number of points per batch           ...       63
Average number of grid points per atom       ...     4194
UseSFitting                                  ... on

Time for X-Grid setup             =    0.087 sec


--------------------
CPCM SOLVATION MODEL
--------------------
CPCM parameters:
  Epsilon                                         ...     INFINITY
  Refrac                                          ...       1.0000
  Rsolv                                           ...       1.3000
  Surface type                                    ... GAUSSIAN VDW
  Epsilon function type                           ...         CPCM
Radii:
 Radius for C  used is    3.8550 Bohr (=   2.0400 Ang.)
 Radius for O  used is    3.4469 Bohr (=   1.8240 Ang.)
Calculating surface                               ...        done! (  0.0s)
GEPOL surface points                              ...          254
GEPOL Volume                                      ...     380.4373
GEPOL Surface-area                                ...     268.7510
Calculating surface distance matrix               ...        done! (  0.0s)
Performing Cholesky decomposition & store         ...        done! (  0.0s)
Overall time for CPCM initialization              ...                 0.0s
--------------
SCF ITERATIONS
--------------
ITER       Energy         Delta-E        Max-DP      RMS-DP      [F,P]     Damp
               ***  Starting incremental Fock matrix formation  ***
                      *** Initiating the SOSCF procedure ***
                      *** Re-Reading the Fockian *** 
                      *** Removing any level shift *** 
ITER      Energy       Delta-E        Grad      Rot      Max-DP    RMS-DP
  0   -188.22825304 -188.2282530443  0.000000  0.000000  0.000001  0.000000
               *** Restarting incremental Fock matrix formation ***
                 **** Energy Check signals convergence ****
              ***Rediagonalizing the Fockian in SOSCF/NRSCF***

               *****************************************************
               *                     SUCCESS                       *
               *           SCF CONVERGED AFTER   1 CYCLES          *
               *****************************************************

Old exchange energy                            =    -10.668470939 Eh
New exchange energy                            =    -10.668489094 Eh
Exchange energy change after final integration =     -0.000018155 Eh
Total energy after final integration           =   -188.228271199 Eh
Final COS-X integration done in                =     0.206 sec

----------------
TOTAL SCF ENERGY
----------------

Total Energy       :         -188.22827120 Eh           -5121.95165 eV

Components:
Nuclear Repulsion  :           51.58462205 Eh            1403.68893 eV
Electronic Energy  :         -239.81289325 Eh           -6525.64058 eV
One Electron Energy:         -359.03100680 Eh           -9769.73038 eV
Two Electron Energy:          119.21811355 Eh            3244.08980 eV
Max COSX asymmetry :            0.00000192 Eh               0.00005 eV
CPCM Dielectric    :           -0.00706055 Eh              -0.19213 eV

Virial components:
Potential Energy   :         -374.60959241 Eh          -10193.64524 eV
Kinetic Energy     :          186.38132121 Eh            5071.69359 eV
Virial Ratio       :            2.00990952


DFT components:
N(Alpha)           :       10.999998697663 electrons
N(Beta)            :       10.999998697663 electrons
N(Total)           :       21.999997395327 electrons
E(X)               :      -10.766898463695 Eh       
E(C)               :       -0.778463835929 Eh       
E(XC)              :      -11.545362299625 Eh       
DFET-embed. en.    :        0.000000000000 Eh       
CPCM Solvation Model Properties:
Surface-charge          :           -0.00242663
Charge-correction       :            0.00000251 Eh               0.00007 eV
Free-energy (cav+disp)  :  This term is not implemented in the current solvation scheme

---------------
SCF CONVERGENCE
---------------

  Last Energy change         ...    2.4727e-12  Tolerance :   1.0000e-08
  Last MAX-Density change    ...    3.1086e-15  Tolerance :   1.0000e-07
  Last RMS-Density change    ...    9.5469e-17  Tolerance :   5.0000e-09
  Last Orbital Gradient      ...    3.2362e-07  Tolerance :   1.0000e-05
  Last Orbital Rotation      ...    7.0003e-07  Tolerance :   1.0000e-05

             **** THE GBW FILE WAS UPDATED (../../mol/ORCA_in/CO.5.gbw) ****
             **** DENSITY ../../mol/ORCA_in/CO.5.scfp WAS UPDATED ****
             **** ENERGY FILE WAS UPDATED (../../mol/ORCA_in/CO.5.en.tmp) ****
             **** THE GBW FILE WAS UPDATED (../../mol/ORCA_in/CO.5.gbw) ****
             **** DENSITY ../../mol/ORCA_in/CO.5.scfp WAS UPDATED ****
----------------
ORBITAL ENERGIES
----------------

  NO   OCC          E(Eh)            E(eV) 
   0   2.0000     -19.830105      -539.6046 
   1   2.0000     -19.756510      -537.6020 
   2   2.0000     -10.844658      -295.0981 
   3   2.0000      -1.318068       -35.8665 
   4   2.0000      -1.091107       -29.6905 
   5   2.0000      -0.687416       -18.7056 
   6   2.0000      -0.583247       -15.8710 
   7   2.0000      -0.583247       -15.8710 
   8   2.0000      -0.569883       -15.5073 
   9   2.0000      -0.407951       -11.1009 
  10   2.0000      -0.407951       -11.1009 
  11   0.0000       0.008201         0.2232 
  12   0.0000       0.008201         0.2232 
  13   0.0000       0.027933         0.7601 
  14   0.0000       0.334500         9.1022 
  15   0.0000       0.442707        12.0467 
  16   0.0000       0.494669        13.4606 
  17   0.0000       0.494669        13.4606 
  18   0.0000       0.735632        20.0176 
  19   0.0000       0.910213        24.7681 
  20   0.0000       0.984198        26.7814 
  21   0.0000       0.984198        26.7814 
  22   0.0000       1.044400        28.4196 
  23   0.0000       1.143825        31.1251 
  24   0.0000       1.143825        31.1251 
  25   0.0000       1.334421        36.3115 
  26   0.0000       1.631381        44.3921 
  27   0.0000       1.631396        44.3925 
  28   0.0000       1.646096        44.7925 
  29   0.0000       1.646096        44.7925 
  30   0.0000       1.673311        45.5331 
  31   0.0000       2.407310        65.5062 
  32   0.0000       2.684808        73.0573 
  33   0.0000       2.684922        73.0605 
  34   0.0000       2.752651        74.9034 
  35   0.0000       2.752744        74.9060 
  36   0.0000       2.781082        75.6771 
  37   0.0000       2.781082        75.6771 
  38   0.0000       3.333024        90.6962 
  39   0.0000       3.333024        90.6962 
  40   0.0000       3.371176        91.7344 
  41   0.0000       3.859507       105.0225 

                    ********************************
                    * MULLIKEN POPULATION ANALYSIS *
                    ********************************

-----------------------
MULLIKEN ATOMIC CHARGES
-----------------------
   0 C :    0.504917
   1 O :   -0.437873
   2 O :   -0.067044
Sum of atomic charges:    0.0000000

--------------------------------
MULLIKEN REDUCED ORBITAL CHARGES
--------------------------------
  0 C s       :     3.160850  s :     3.160850
      pz      :     0.855512  p :     2.231990
      px      :     0.688239
      py      :     0.688239
      dz2     :     0.025882  d :     0.102243
      dxz     :     0.038180
      dyz     :     0.038180
      dx2y2   :     0.000000
      dxy     :     0.000000
  1 O s       :     3.922086  s :     3.922086
      pz      :     0.975641  p :     4.506614
      px      :     1.765487
      py      :     1.765487
      dz2     :     0.005511  d :     0.009173
      dxz     :     0.001831
      dyz     :     0.001831
      dx2y2   :     0.000000
      dxy     :     0.000000
  2 O s       :     3.739813  s :     3.739813
      pz      :     1.304754  p :     4.302493
      px      :     1.498870
      py      :     1.498870
      dz2     :     0.009951  d :     0.024738
      dxz     :     0.007393
      dyz     :     0.007393
      dx2y2   :     0.000000
      dxy     :     0.000000


                     *******************************
                     * LOEWDIN POPULATION ANALYSIS *
                     *******************************

----------------------
LOEWDIN ATOMIC CHARGES
----------------------
   0 C :    0.360301
   1 O :   -0.372681
   2 O :    0.012380

-------------------------------
LOEWDIN REDUCED ORBITAL CHARGES
-------------------------------
  0 C s       :     2.979800  s :     2.979800
      pz      :     1.052762  p :     2.464384
      px      :     0.705811
      py      :     0.705811
      dz2     :     0.061957  d :     0.195515
      dxz     :     0.066779
      dyz     :     0.066779
      dx2y2   :     0.000000
      dxy     :     0.000000
  1 O s       :     3.765815  s :     3.765815
      pz      :     1.085039  p :     4.591266
      px      :     1.753113
      py      :     1.753113
      dz2     :     0.011906  d :     0.015601
      dxz     :     0.001847
      dyz     :     0.001847
      dx2y2   :     0.000000
      dxy     :     0.000000
  2 O s       :     3.540519  s :     3.540519
      pz      :     1.480966  p :     4.409370
      px      :     1.464202
      py      :     1.464202
      dz2     :     0.021236  d :     0.037731
      dxz     :     0.008248
      dyz     :     0.008248
      dx2y2   :     0.000000
      dxy     :     0.000000


                      *****************************
                      * MAYER POPULATION ANALYSIS *
                      *****************************

  NA   - Mulliken gross atomic population
  ZA   - Total nuclear charge
  QA   - Mulliken gross atomic charge
  VA   - Mayer's total valence
  BVA  - Mayer's bonded valence
  FA   - Mayer's free valence

  ATOM       NA         ZA         QA         VA         BVA        FA
  0 C      5.4951     6.0000     0.5049     3.9623     3.9623     0.0000
  1 O      8.4379     8.0000    -0.4379     1.8127     1.8127     0.0000
  2 O      8.0670     8.0000    -0.0670     2.4724     2.4724     0.0000

  Mayer bond orders larger than 0.100000
B(  0-C ,  1-O ) :   1.6513 B(  0-C ,  2-O ) :   2.3110 B(  1-O ,  2-O ) :   0.1614 


-------
TIMINGS
-------

Total SCF time: 0 days 0 hours 0 min 0 sec 

Total time                  ....       0.938 sec
Sum of individual times     ....       0.896 sec  ( 95.6%)

Fock matrix formation       ....       0.714 sec  ( 76.1%)
  Split-RI-J                ....       0.109 sec  ( 15.2% of F)
  Chain of spheres X        ....       0.421 sec  ( 58.9% of F)
  XC integration            ....       0.098 sec  ( 13.8% of F)
    Basis function eval.    ....       0.041 sec  ( 41.5% of XC)
    Density eval.           ....       0.017 sec  ( 17.0% of XC)
    XC-Functional eval.     ....       0.023 sec  ( 23.1% of XC)
    XC-Potential eval.      ....       0.011 sec  ( 11.7% of XC)
Diagonalization             ....       0.000 sec  (  0.0%)
Density matrix formation    ....       0.000 sec  (  0.0%)
Population analysis         ....       0.001 sec  (  0.1%)
Initial guess               ....       0.000 sec  (  0.1%)
Orbital Transformation      ....       0.000 sec  (  0.0%)
Orbital Orthonormalization  ....       0.000 sec  (  0.0%)
DIIS solution               ....       0.000 sec  (  0.0%)
SOSCF solution              ....       0.000 sec  (  0.0%)
Grid generation             ....       0.180 sec  ( 19.2%)

Maximum memory used throughout the entire SCF-calculation: 45.5 MB
------------------------------------------------------------------------------
                        ORCA TD-DFT/TDA CALCULATION
------------------------------------------------------------------------------

Input orbitals are from        ... ../../mol/ORCA_in/CO.5.gbw
CI-vector output               ... ../../mol/ORCA_in/CO.5.cis
Tamm-Dancoff approximation     ... operative
CIS-Integral strategy          ... AO-integrals
Integral handling              ... AO integral Direct
Max. core memory used          ... 512 MB
Reference state                ... RHF
Generation of triplets         ... off
Follow IRoot                   ... off
Number of operators            ... 1
Orbital ranges used for CIS calculation:
 Operator 0:  Orbitals   3... 10  to  11... 41
XAS localization array:
 Operator 0:  Orbitals  -1... -1

-------------------
XC-INTEGRATION GRID
-------------------

General Integration Accuracy     IntAcc      ... 3.467
Radial Grid Type                 RadialGrid  ... OptM3 with GC (2021)
Angular Grid (max. ang.)         AngularGrid ... 1 (Lebedev-50)
Angular grid pruning method      GridPruning ... 4 (adaptive)
Weight generation scheme         WeightScheme... Becke
Basis function cutoff            BFCut       ... 1.0000e-11
Integration weight cutoff        WCut        ... 1.0000e-14
Angular grids for H and He will be reduced by one unit
Partially contracted basis set               ... off
Rotationally invariant grid construction     ... off

Total number of grid points                  ...     2880
Total number of batches                      ...       46
Average number of points per batch           ...       62
Average number of grid points per atom       ...      960

---------------------
COSX-INTEGRATION GRID
---------------------

General Integration Accuracy     IntAcc      ... 3.067
Radial Grid Type                 RadialGrid  ... OptM3 with GC (2021)
Angular Grid (max. ang.)         AngularGrid ... 1 (Lebedev-50)
Angular grid pruning method      GridPruning ... 4 (adaptive)
Weight generation scheme         WeightScheme... Becke
Basis function cutoff            BFCut       ... 1.0000e-11
Integration weight cutoff        WCut        ... 1.0000e-14
Angular grids for H and He will be reduced by one unit
Partially contracted basis set               ... on
Rotationally invariant grid construction     ... off

Total number of grid points                  ...     1261
Total number of batches                      ...       21
Average number of points per batch           ...       60
Average number of grid points per atom       ...      420

---------------
TD-DFT XC SETUP
---------------

DFT calculation                         ... on
Name of the grid file                   ... ../../mol/ORCA_in/CO.5.grid_cis.tmp
Exchange functional (TD-DFT)            ... B88
   X-Alpha parameter    XAlpha (TD-DFT) ...  0.666667
   Becke's b parameter  XBeta (TD-DFT)  ...  0.004200
Correlation functional (TD-DFT)         ... LYP
Hybrid DFT                              ... on
   Exchange mixing (TD-DFT)             ...  0.500
   GGA exch. scaling (TD-DFT)           ...  0.500
   GGA corr. scaling (TD-DFT)           ...  1.000

Building densities             ... done
Calculating rho(r) on the grid ... done
Building xc-kernel on the grid ... done
                    *** TD-DFT CALCULATION INITIALIZED ***

---------------------------------
    LR-CPCM (non-equilibrium)
---------------------------------

Setting up LR-CPCM             ... done

------------------------
DAVIDSON-DIAGONALIZATION
------------------------

Dimension of the eigenvalue problem            ...    248
Number of roots to be determined               ...      5
Maximum size of the expansion space            ...     50
Maximum number of iterations                   ...    100
Convergence tolerance for the residual         ...    2.500e-07
Convergence tolerance for the energies         ...    2.500e-07
Orthogonality tolerance                        ...    1.000e-14
Level Shift                                    ...    0.000e+00
Constructing the preconditioner                ... o.k.
Building the initial guess                     ... o.k.
Number of trial vectors determined             ...     50


                       ****Iteration    0****

   Memory handling for direct AO based CIS:
   Memory per vector needed      ...     1 MB
   Memory needed                 ...     1 MB
   Memory available              ...   512 MB
   Number of vectors per batch   ...   512
   Number of batches             ...     1
   Time for densities:            0.000
   Time for RI-J (Direct):        0.015
   Time for K (COSX):             0.059
   Time for XC-Integration:       0.053
   Time for LR-CPCM terms:        0.061
   Time for Sigma-Completion:     0.000
   Size of expansion space: 15
   Lowest Energy          :     0.235514403166
   Maximum Energy change  :     0.251717363488 (vector 4)
   Maximum residual norm  :     0.007527672814

                       ****Iteration    1****
   Time for densities:            0.000
   Time for RI-J (Direct):        0.016
   Time for K (COSX):             0.045
   Time for XC-Integration:       0.018
   Time for LR-CPCM terms:        0.054
   Time for Sigma-Completion:     0.000
   Size of expansion space: 20
   Lowest Energy          :     0.224916162386
   Maximum Energy change  :     0.010598241008 (vector 1)
   Maximum residual norm  :     0.000205535294

                       ****Iteration    2****
   Time for densities:            0.000
   Time for RI-J (Direct):        0.013
   Time for K (COSX):             0.046
   Time for XC-Integration:       0.020
   Time for LR-CPCM terms:        0.051
   Time for Sigma-Completion:     0.000
   Size of expansion space: 25
   Lowest Energy          :     0.224796988374
   Maximum Energy change  :     0.000119174043 (vector 1)
   Maximum residual norm  :     0.000002609762

                       ****Iteration    3****
   Time for densities:            0.000
   Time for RI-J (Direct):        0.012
   Time for K (COSX):             0.044
   Time for XC-Integration:       0.018
   Time for LR-CPCM terms:        0.050
   Time for Sigma-Completion:     0.000
   Size of expansion space: 30
   Lowest Energy          :     0.224794907827
   Maximum Energy change  :     0.000002080547 (vector 1)
   Maximum residual norm  :     0.000000023974

      *** CONVERGENCE OF RESIDUAL NORM REACHED ***

Storing the converged CI vectors               ... ../../mol/ORCA_in/CO.5.cis1

                 *** DAVIDSON DONE ***

Total time for solving the CIS problem:     0.597sec

------------------------------------
TD-DFT/TDA EXCITED STATES (SINGLETS)
------------------------------------

the weight of the individual excitations are printed if larger than 1.0e-02

STATE  1:  E=   0.224795 au      6.117 eV    49336.8 cm**-1 <S**2> =   0.000000
    10a ->  13a  :     0.975308 (c= -0.98757662)
    10a ->  14a  :     0.015629 (c=  0.12501766)

STATE  2:  E=   0.224795 au      6.117 eV    49336.8 cm**-1 <S**2> =   0.000000
     9a ->  13a  :     0.975308 (c=  0.98757662)
     9a ->  14a  :     0.015629 (c= -0.12501767)

STATE  3:  E=   0.241244 au      6.565 eV    52946.9 cm**-1 <S**2> =   0.000000
     9a ->  11a  :     0.496678 (c=  0.70475376)
    10a ->  12a  :     0.496679 (c=  0.70475476)

STATE  4:  E=   0.249702 au      6.795 eV    54803.3 cm**-1 <S**2> =   0.000000
     9a ->  11a  :     0.019890 (c=  0.14103142)
     9a ->  12a  :     0.477430 (c= -0.69096323)
    10a ->  11a  :     0.477431 (c= -0.69096346)
    10a ->  12a  :     0.019890 (c= -0.14103120)

STATE  5:  E=   0.249800 au      6.797 eV    54824.8 cm**-1 <S**2> =   0.000000
     9a ->  11a  :     0.477433 (c= -0.69096561)
     9a ->  12a  :     0.019890 (c= -0.14103164)
    10a ->  11a  :     0.019890 (c= -0.14103170)
    10a ->  12a  :     0.477432 (c=  0.69096463)


-----------------------------
TD-DFT/TDA-EXCITATION SPECTRA
-----------------------------

Center of mass = (  0.0000,  0.0000,  0.2342)
Calculating the Dipole integrals                  ... done
Transforming integrals                            ... done
Calculating the Linear Momentum integrals         ... done
Transforming integrals                            ... done
Calculating angular momentum integrals            ... done
Transforming integrals                            ... done

-----------------------------------------------------------------------------
         ABSORPTION SPECTRUM VIA TRANSITION ELECTRIC DIPOLE MOMENTS
-----------------------------------------------------------------------------
State   Energy    Wavelength  fosc         T2        TX        TY        TZ  
        (cm-1)      (nm)                 (au**2)    (au)      (au)      (au) 
-----------------------------------------------------------------------------
   1   49336.8    202.7   0.004981684   0.03324  -0.11526  -0.14127   0.00000
   2   49336.8    202.7   0.004981690   0.03324  -0.14127   0.11526   0.00000
   3   52946.9    188.9   0.000000000   0.00000   0.00000  -0.00000   0.00000
   4   54803.3    182.5   0.000000000   0.00000   0.00000   0.00000   0.00000
   5   54824.8    182.4   0.000000000   0.00000  -0.00000   0.00000   0.00000

-----------------------------------------------------------------------------
         ABSORPTION SPECTRUM VIA TRANSITION VELOCITY DIPOLE MOMENTS
-----------------------------------------------------------------------------
State   Energy    Wavelength   fosc        P2         PX        PY        PZ  
        (cm-1)      (nm)                 (au**2)     (au)      (au)      (au) 
-----------------------------------------------------------------------------
   1   49336.8    202.7   0.008161798   0.00275   0.03316   0.04065  -0.00000
   2   49336.8    202.7   0.008161797   0.00275   0.04065  -0.03316  -0.00000
   3   52946.9    188.9   0.000000000   0.00000  -0.00000   0.00000  -0.00000
   4   54803.3    182.5   0.000000000   0.00000  -0.00000  -0.00000  -0.00000
   5   54824.8    182.4   0.000000000   0.00000   0.00000  -0.00000  -0.00000

-------------------------------------------------------------------
                             CD SPECTRUM
-------------------------------------------------------------------
State  Energy     Wavelength     R         MX        MY        MZ   
       (cm-1)       (nm)     (1e40*cgs)   (au)      (au)      (au)  
-------------------------------------------------------------------
   1   49336.8    202.7     -0.00000  -0.06530   0.05328  -0.00000
   2   49336.8    202.7      0.00000   0.05328   0.06530   0.00000
   3   52946.9    188.9     -0.00000   0.00000   0.00000   0.00000
   4   54803.3    182.5     -0.00000   0.00000  -0.00000  -0.00000
   5   54824.8    182.4      0.00000   0.00000   0.00000   0.00000

-------------------------------------------------------------------
         CD SPECTRUM VIA TRANSITION VELOCITY DIPOLE MOMENTS        
-------------------------------------------------------------------
State  Energy     Wavelength     R         MX        MY        MZ   
       (cm-1)       (nm)     (1e40*cgs)   (au)      (au)      (au)  
-------------------------------------------------------------------
   1   49336.8    202.7      0.00000  -0.06530   0.05328  -0.00000
   2   49336.8    202.7     -0.00000   0.05328   0.06530   0.00000
   3   52946.9    188.9     -0.00000   0.00000   0.00000   0.00000
   4   54803.3    182.5     -0.00000   0.00000  -0.00000  -0.00000
   5   54824.8    182.4      0.00000   0.00000   0.00000   0.00000

Total run time:        0.839 sec

           *** ORCA-CIS/TD-DFT FINISHED WITHOUT ERROR ***

Maximum memory used throughout the entire CIS-calculation: 43.2 MB

-----------------------
CIS/TD-DFT TOTAL ENERGY
-----------------------

    E(SCF)  =   -188.228271199 Eh
    DE(CIS) =      0.224794908 Eh (Root  1)
    ----------------------------- ---------
    E(tot)  =   -188.003476291 Eh


-------------------------   --------------------
FINAL SINGLE POINT ENERGY      -188.003476291471
-------------------------   --------------------


                            ***************************************
                            *     ORCA property calculations      *
                            ***************************************

                                    ---------------------
                                    Active property flags
                                    ---------------------
   (+) Dipole Moment


------------------------------------------------------------------------------
                       ORCA ELECTRIC PROPERTIES CALCULATION
------------------------------------------------------------------------------

Dipole Moment Calculation                       ... on
Quadrupole Moment Calculation                   ... off
Polarizability Calculation                      ... off
GBWName                                         ... ../../mol/ORCA_in/CO.5.gbw
Electron density                                ... ../../mol/ORCA_in/CO.5.scfp
The origin for moment calculation is the CENTER OF MASS  = ( 0.000000,  0.000000  0.234211)

-------------
DIPOLE MOMENT
-------------
                                X             Y             Z
Electronic contribution:      0.00000       0.00000      -0.82650
Nuclear contribution   :      0.00000       0.00000       0.00138
                        -----------------------------------------
Total Dipole Moment    :      0.00000       0.00000      -0.82512
                        -----------------------------------------
Magnitude (a.u.)       :      0.82512
Magnitude (Debye)      :      2.09729



--------------------
Rotational spectrum 
--------------------
 
Rotational constants in cm-1:     0.000000     0.296708     0.296708 
Rotational constants in MHz :     0.000000  8895.067119  8895.067119 

 Dipole components along the rotational axes: 
x,y,z [a.u.] :    -0.825122     0.000000     0.000000 
x,y,z [Debye]:    -2.097293     0.000000     0.000000 

 

Timings for individual modules:

Sum of individual times         ...        1.872 sec (=   0.031 min)
GTO integral calculation        ...        0.086 sec (=   0.001 min)   4.6 %
SCF iterations                  ...        0.943 sec (=   0.016 min)  50.4 %
CIS module                      ...        0.844 sec (=   0.014 min)  45.1 %
                             ****ORCA TERMINATED NORMALLY****
TOTAL RUN TIME: 0 days 0 hours 0 minutes 1 seconds 974 msec
